LAMMPS Description 

125 atoms 
3 bonds 
0 angles 
0 dihedrals 
0 impropers 

2 atom types 
1 bond types 

0.00 10.00 xlo xhi 
0.00 10.00 ylo yhi 
0.00 10.00 zlo zhi 

Atoms 

1 1 1 0.00 0.00 0.00 
2 1 2 0.00 0.00 2.00 
3 1 1 0.00 0.00 4.00 
4 1 1 0.00 0.00 6.00 
5 1 2 0.00 0.00 8.00 
6 1 2 0.00 2.00 0.00 
7 1 1 0.00 2.00 2.00 
8 1 2 0.00 2.00 4.00 
9 1 1 0.00 2.00 6.00 
10 1 1 0.00 2.00 8.00 
11 1 2 0.00 4.00 0.00 
12 1 1 0.00 4.00 2.00 
13 1 1 0.00 4.00 4.00 
14 1 1 0.00 4.00 6.00 
15 1 1 0.00 4.00 8.00 
16 1 1 0.00 6.00 0.00 
17 1 1 0.00 6.00 2.00 
18 1 1 0.00 6.00 4.00 
19 1 2 0.00 6.00 6.00 
20 1 1 0.00 6.00 8.00 
21 1 2 0.00 8.00 0.00 
22 1 1 0.00 8.00 2.00 
23 1 2 0.00 8.00 4.00 
24 1 2 0.00 8.00 6.00 
25 1 1 0.00 8.00 8.00 
26 1 1 2.00 0.00 0.00 
27 1 1 2.00 0.00 2.00 
28 1 1 2.00 0.00 4.00 
29 1 1 2.00 0.00 6.00 
30 1 2 2.00 0.00 8.00 
31 1 2 2.00 2.00 0.00 
32 1 2 2.00 2.00 2.00 
33 1 1 2.00 2.00 4.00 
34 1 2 2.00 2.00 6.00 
35 1 1 2.00 2.00 8.00 
36 1 2 2.00 4.00 0.00 
37 1 1 2.00 4.00 2.00 
38 1 1 2.00 4.00 4.00 
39 1 2 2.00 4.00 6.00 
40 1 2 2.00 4.00 8.00 
41 1 2 2.00 6.00 0.00 
42 1 2 2.00 6.00 2.00 
43 1 2 2.00 6.00 4.00 
44 1 2 2.00 6.00 6.00 
45 1 2 2.00 6.00 8.00 
46 1 1 2.00 8.00 0.00 
47 1 2 2.00 8.00 2.00 
48 1 1 2.00 8.00 4.00 
49 1 1 2.00 8.00 6.00 
50 1 2 2.00 8.00 8.00 
51 1 2 4.00 0.00 0.00 
52 1 1 4.00 0.00 2.00 
53 1 2 4.00 0.00 4.00 
54 1 1 4.00 0.00 6.00 
55 1 1 4.00 0.00 8.00 
56 1 1 4.00 2.00 0.00 
57 1 2 4.00 2.00 2.00 
58 1 1 4.00 2.00 4.00 
59 1 1 4.00 2.00 6.00 
60 1 2 4.00 2.00 8.00 
61 1 2 4.00 4.00 0.00 
62 1 1 4.00 4.00 2.00 
63 1 2 4.00 4.00 4.00 
64 1 1 4.00 4.00 6.00 
65 1 2 4.00 4.00 8.00 
66 1 2 4.00 6.00 0.00 
67 1 2 4.00 6.00 2.00 
68 1 1 4.00 6.00 4.00 
69 1 1 4.00 6.00 6.00 
70 1 2 4.00 6.00 8.00 
71 1 1 4.00 8.00 0.00 
72 1 2 4.00 8.00 2.00 
73 1 2 4.00 8.00 4.00 
74 1 1 4.00 8.00 6.00 
75 1 1 4.00 8.00 8.00 
76 1 1 6.00 0.00 0.00 
77 1 2 6.00 0.00 2.00 
78 1 1 6.00 0.00 4.00 
79 1 2 6.00 0.00 6.00 
80 1 1 6.00 0.00 8.00 
81 1 2 6.00 2.00 0.00 
82 1 2 6.00 2.00 2.00 
83 1 2 6.00 2.00 4.00 
84 1 2 6.00 2.00 6.00 
85 1 1 6.00 2.00 8.00 
86 1 2 6.00 4.00 0.00 
87 1 1 6.00 4.00 2.00 
88 1 1 6.00 4.00 4.00 
89 1 1 6.00 4.00 6.00 
90 1 1 6.00 4.00 8.00 
91 1 2 6.00 6.00 0.00 
92 1 2 6.00 6.00 2.00 
93 1 2 6.00 6.00 4.00 
94 1 2 6.00 6.00 6.00 
95 1 2 6.00 6.00 8.00 
96 1 2 6.00 8.00 0.00 
97 1 2 6.00 8.00 2.00 
98 1 2 6.00 8.00 4.00 
99 1 2 6.00 8.00 6.00 
100 1 2 6.00 8.00 8.00 
101 1 1 8.00 0.00 0.00 
102 1 2 8.00 0.00 2.00 
103 1 2 8.00 0.00 4.00 
104 1 1 8.00 0.00 6.00 
105 1 2 8.00 0.00 8.00 
106 1 1 8.00 2.00 0.00 
107 1 1 8.00 2.00 2.00 
108 1 2 8.00 2.00 4.00 
109 1 1 8.00 2.00 6.00 
110 1 1 8.00 2.00 8.00 
111 1 2 8.00 4.00 0.00 
112 1 2 8.00 4.00 2.00 
113 1 2 8.00 4.00 4.00 
114 1 2 8.00 4.00 6.00 
115 1 2 8.00 4.00 8.00 
116 1 2 8.00 6.00 0.00 
117 1 1 8.00 6.00 2.00 
118 1 1 8.00 6.00 4.00 
119 1 1 8.00 6.00 6.00 
120 1 1 8.00 6.00 8.00 
121 1 2 8.00 8.00 0.00 
122 1 1 8.00 8.00 2.00 
123 1 2 8.00 8.00 4.00 
124 1 2 8.00 8.00 6.00 
125 1 1 8.00 8.00 8.00 

Masses 

1 1.00
2 1.00

Velocities 

1 -0.09 -0.16 0.13 
2 -0.04 0.24 0.10 
3 -0.24 -0.10 0.13 
4 -0.08 0.20 0.14 
5 0.15 0.08 0.14 
6 -0.24 -0.18 -0.20 
7 -0.07 -0.20 0.20 
8 0.10 -0.11 -0.05 
9 0.21 0.23 0.23 
10 -0.22 -0.24 -0.18 
11 -0.08 -0.15 0.01 
12 -0.19 0.16 -0.21 
13 -0.02 -0.03 0.09 
14 0.19 0.24 -0.17 
15 -0.22 -0.06 0.20 
16 0.15 0.16 -0.03 
17 -0.07 -0.24 0.02 
18 -0.08 0.21 -0.24 
19 -0.09 0.17 -0.21 
20 -0.07 -0.01 0.15 
21 0.06 -0.02 -0.16 
22 -0.05 0.19 -0.03 
23 -0.17 -0.05 -0.23 
24 -0.16 -0.19 -0.01 
25 -0.18 0.13 -0.25 
26 0.15 -0.09 0.19 
27 -0.13 -0.19 -0.15 
28 0.10 0.17 0.19 
29 0.05 0.23 0.08 
30 0.23 0.04 -0.05 
31 -0.07 0.06 -0.10 
32 -0.20 0.21 -0.07 
33 -0.02 -0.08 -0.02 
34 0.10 0.07 0.05 
35 -0.10 -0.20 0.20 
36 -0.11 -0.13 -0.23 
37 0.05 0.14 -0.12 
38 -0.01 0.14 -0.04 
39 -0.05 0.24 0.10 
40 -0.20 -0.25 0.18 
41 0.02 -0.20 0.15 
42 -0.10 -0.20 -0.08 
43 0.13 -0.07 -0.02 
44 0.07 0.04 -0.00 
45 0.15 0.16 -0.10 
46 -0.16 0.00 -0.22 
47 -0.24 -0.13 0.18 
48 -0.11 -0.03 0.04 
49 -0.15 0.05 -0.06 
50 0.13 -0.14 0.12 
51 -0.01 -0.08 0.13 
52 -0.07 -0.16 0.05 
53 0.02 0.07 -0.24 
54 -0.12 -0.13 0.06 
55 -0.23 -0.02 0.15 
56 0.15 0.24 -0.12 
57 -0.17 -0.22 0.21 
58 -0.23 -0.06 -0.11 
59 -0.20 0.22 0.25 
60 -0.24 -0.06 0.20 
61 -0.19 -0.18 0.11 
62 0.16 -0.08 -0.05 
63 -0.13 -0.14 0.16 
64 0.05 -0.02 -0.07 
65 0.08 0.09 0.17 
66 0.03 -0.10 0.18 
67 0.11 0.06 -0.22 
68 -0.20 -0.17 0.11 
69 0.10 0.17 -0.13 
70 -0.21 -0.02 -0.05 
71 -0.17 -0.23 0.20 
72 0.20 0.16 -0.18 
73 0.23 0.19 -0.09 
74 -0.23 -0.17 0.17 
75 -0.24 0.14 -0.03 
76 0.02 0.05 0.19 
77 0.18 0.14 0.10 
78 0.10 0.10 -0.25 
79 0.05 0.04 -0.22 
80 -0.13 0.08 -0.20 
81 -0.18 -0.11 0.08 
82 -0.22 -0.16 0.19 
83 -0.05 -0.09 0.16 
84 0.02 -0.07 0.05 
85 -0.04 -0.16 0.22 
86 0.02 0.04 0.19 
87 0.23 -0.15 0.15 
88 0.15 -0.02 0.02 
89 -0.01 0.01 -0.09 
90 0.21 0.24 -0.24 
91 -0.02 0.14 -0.16 
92 -0.12 -0.24 -0.21 
93 -0.12 -0.05 0.06 
94 0.20 -0.00 -0.10 
95 -0.23 0.25 0.12 
96 0.22 0.19 0.04 
97 0.25 -0.07 -0.24 
98 -0.18 -0.08 0.18 
99 -0.09 0.02 0.01 
100 -0.09 -0.25 -0.05 
101 0.03 0.24 -0.07 
102 0.15 0.15 -0.11 
103 -0.25 0.06 -0.01 
104 0.04 -0.13 -0.01 
105 0.17 -0.16 -0.25 
106 -0.20 0.08 0.15 
107 0.20 -0.08 0.13 
108 -0.22 0.07 -0.16 
109 -0.14 -0.00 0.07 
110 0.13 -0.03 0.14 
111 0.16 0.16 -0.05 
112 0.13 0.04 -0.02 
113 -0.05 -0.04 -0.14 
114 -0.18 -0.08 -0.13 
115 0.18 -0.24 -0.16 
116 -0.21 -0.04 0.23 
117 0.14 0.24 -0.21 
118 -0.17 0.17 -0.11 
119 -0.13 -0.18 0.02 
120 -0.16 0.20 -0.19 
121 0.11 0.12 0.01 
122 -0.01 0.14 0.20 
123 0.23 0.11 0.19 
124 0.24 0.17 -0.16 
125 0.00 0.01 0.11 

Bonds 

1 1 1 2
2 1 2 3
3 1 3 4

