LAMMPS Description 

125 atoms 
3 bonds 
0 angles 
0 dihedrals 
0 impropers 
2 atom types 
1 bond types 

0.00 10.00 xlo xhi 
0.00 10.00 ylo yhi 
0.00 10.00 zlo zhi 

Atoms 

1 1 0.00 0.00 0.00 
2 2 0.00 0.00 2.00 
3 2 0.00 0.00 4.00 
4 2 0.00 0.00 6.00 
5 2 0.00 0.00 8.00 
6 2 0.00 2.00 0.00 
7 2 0.00 2.00 2.00 
8 1 0.00 2.00 4.00 
9 1 0.00 2.00 6.00 
10 2 0.00 2.00 8.00 
11 2 0.00 4.00 0.00 
12 1 0.00 4.00 2.00 
13 2 0.00 4.00 4.00 
14 1 0.00 4.00 6.00 
15 1 0.00 4.00 8.00 
16 2 0.00 6.00 0.00 
17 2 0.00 6.00 2.00 
18 1 0.00 6.00 4.00 
19 2 0.00 6.00 6.00 
20 1 0.00 6.00 8.00 
21 2 0.00 8.00 0.00 
22 2 0.00 8.00 2.00 
23 1 0.00 8.00 4.00 
24 1 0.00 8.00 6.00 
25 2 0.00 8.00 8.00 
26 2 2.00 0.00 0.00 
27 2 2.00 0.00 2.00 
28 1 2.00 0.00 4.00 
29 2 2.00 0.00 6.00 
30 1 2.00 0.00 8.00 
31 2 2.00 2.00 0.00 
32 1 2.00 2.00 2.00 
33 2 2.00 2.00 4.00 
34 2 2.00 2.00 6.00 
35 2 2.00 2.00 8.00 
36 1 2.00 4.00 0.00 
37 2 2.00 4.00 2.00 
38 1 2.00 4.00 4.00 
39 2 2.00 4.00 6.00 
40 1 2.00 4.00 8.00 
41 2 2.00 6.00 0.00 
42 2 2.00 6.00 2.00 
43 1 2.00 6.00 4.00 
44 1 2.00 6.00 6.00 
45 2 2.00 6.00 8.00 
46 2 2.00 8.00 0.00 
47 1 2.00 8.00 2.00 
48 1 2.00 8.00 4.00 
49 1 2.00 8.00 6.00 
50 2 2.00 8.00 8.00 
51 2 4.00 0.00 0.00 
52 2 4.00 0.00 2.00 
53 1 4.00 0.00 4.00 
54 2 4.00 0.00 6.00 
55 1 4.00 0.00 8.00 
56 2 4.00 2.00 0.00 
57 2 4.00 2.00 2.00 
58 2 4.00 2.00 4.00 
59 1 4.00 2.00 6.00 
60 1 4.00 2.00 8.00 
61 1 4.00 4.00 0.00 
62 1 4.00 4.00 2.00 
63 1 4.00 4.00 4.00 
64 1 4.00 4.00 6.00 
65 1 4.00 4.00 8.00 
66 1 4.00 6.00 0.00 
67 2 4.00 6.00 2.00 
68 1 4.00 6.00 4.00 
69 1 4.00 6.00 6.00 
70 1 4.00 6.00 8.00 
71 2 4.00 8.00 0.00 
72 1 4.00 8.00 2.00 
73 2 4.00 8.00 4.00 
74 2 4.00 8.00 6.00 
75 2 4.00 8.00 8.00 
76 2 6.00 0.00 0.00 
77 2 6.00 0.00 2.00 
78 1 6.00 0.00 4.00 
79 1 6.00 0.00 6.00 
80 2 6.00 0.00 8.00 
81 2 6.00 2.00 0.00 
82 1 6.00 2.00 2.00 
83 1 6.00 2.00 4.00 
84 2 6.00 2.00 6.00 
85 2 6.00 2.00 8.00 
86 2 6.00 4.00 0.00 
87 2 6.00 4.00 2.00 
88 1 6.00 4.00 4.00 
89 2 6.00 4.00 6.00 
90 2 6.00 4.00 8.00 
91 1 6.00 6.00 0.00 
92 1 6.00 6.00 2.00 
93 1 6.00 6.00 4.00 
94 2 6.00 6.00 6.00 
95 1 6.00 6.00 8.00 
96 2 6.00 8.00 0.00 
97 1 6.00 8.00 2.00 
98 1 6.00 8.00 4.00 
99 1 6.00 8.00 6.00 
100 1 6.00 8.00 8.00 
101 1 8.00 0.00 0.00 
102 1 8.00 0.00 2.00 
103 1 8.00 0.00 4.00 
104 2 8.00 0.00 6.00 
105 1 8.00 0.00 8.00 
106 2 8.00 2.00 0.00 
107 2 8.00 2.00 2.00 
108 2 8.00 2.00 4.00 
109 2 8.00 2.00 6.00 
110 1 8.00 2.00 8.00 
111 1 8.00 4.00 0.00 
112 2 8.00 4.00 2.00 
113 2 8.00 4.00 4.00 
114 2 8.00 4.00 6.00 
115 1 8.00 4.00 8.00 
116 1 8.00 6.00 0.00 
117 2 8.00 6.00 2.00 
118 2 8.00 6.00 4.00 
119 1 8.00 6.00 6.00 
120 2 8.00 6.00 8.00 
121 1 8.00 8.00 0.00 
122 1 8.00 8.00 2.00 
123 2 8.00 8.00 4.00 
124 2 8.00 8.00 6.00 
125 1 8.00 8.00 8.00 

Masses 

1 1.00
2 1.00

Velocities 

1 -0.25 -0.12 -0.15 
2 -0.21 0.23 -0.12 
3 0.25 -0.18 0.17 
4 -0.15 0.16 -0.11 
5 0.04 0.07 0.14 
6 -0.23 -0.22 -0.08 
7 0.24 -0.24 0.10 
8 -0.23 0.16 0.15 
9 0.05 -0.03 -0.23 
10 0.20 -0.06 0.12 
11 -0.10 -0.02 -0.07 
12 0.06 -0.07 0.12 
13 0.05 -0.25 -0.14 
14 -0.12 -0.20 -0.08 
15 -0.19 0.11 -0.07 
16 0.14 -0.15 0.07 
17 -0.11 0.00 -0.04 
18 0.04 -0.10 -0.05 
19 -0.12 -0.18 -0.16 
20 0.22 0.18 -0.21 
21 0.17 0.01 -0.10 
22 -0.04 -0.21 -0.18 
23 0.03 -0.24 -0.11 
24 0.21 -0.15 -0.05 
25 -0.08 -0.07 0.12 
26 -0.16 0.07 0.10 
27 -0.18 -0.19 -0.13 
28 -0.09 -0.05 -0.20 
29 -0.14 -0.12 0.22 
30 0.18 -0.16 0.17 
31 -0.08 0.15 -0.02 
32 0.17 0.14 0.11 
33 0.14 -0.00 -0.07 
34 -0.24 -0.24 0.05 
35 -0.03 -0.19 -0.17 
36 -0.04 0.23 -0.08 
37 0.00 -0.20 -0.01 
38 -0.08 0.04 0.25 
39 -0.13 0.03 -0.12 
40 0.07 0.03 -0.11 
41 0.13 -0.22 0.25 
42 0.12 0.09 0.22 
43 0.04 -0.06 0.05 
44 -0.04 -0.21 0.04 
45 0.10 -0.06 0.12 
46 0.25 0.04 0.06 
47 -0.24 -0.02 0.13 
48 0.11 0.09 -0.13 
49 -0.13 0.04 0.07 
50 -0.13 0.08 -0.24 
51 -0.11 -0.10 -0.12 
52 0.04 0.09 -0.12 
53 0.21 -0.04 -0.22 
54 0.08 -0.21 0.13 
55 -0.18 0.07 0.15 
56 0.00 0.10 0.15 
57 0.22 0.01 -0.22 
58 0.14 0.25 -0.17 
59 -0.19 -0.25 0.06 
60 0.17 0.14 -0.03 
61 -0.01 0.06 0.05 
62 -0.22 -0.17 -0.18 
63 -0.06 -0.09 0.18 
64 0.20 -0.08 0.21 
65 -0.11 0.04 -0.03 
66 -0.12 -0.17 0.01 
67 -0.19 0.17 0.16 
68 -0.23 -0.12 0.03 
69 -0.13 -0.05 0.21 
70 0.17 -0.04 -0.10 
71 0.24 -0.02 -0.21 
72 -0.04 0.11 -0.20 
73 -0.11 0.20 -0.04 
74 0.10 -0.08 0.19 
75 0.11 0.24 0.01 
76 0.04 -0.07 0.19 
77 -0.14 0.20 -0.09 
78 0.20 -0.12 -0.15 
79 0.05 0.13 -0.15 
80 0.17 -0.14 -0.11 
81 0.05 -0.17 -0.18 
82 0.14 -0.21 0.06 
83 -0.04 0.02 -0.13 
84 -0.25 -0.24 0.01 
85 -0.16 0.21 0.06 
86 0.13 -0.03 0.20 
87 -0.07 -0.16 0.25 
88 -0.23 0.08 -0.15 
89 -0.02 0.06 0.21 
90 0.04 -0.13 -0.20 
91 -0.21 0.18 -0.12 
92 0.20 -0.00 0.06 
93 -0.09 -0.19 0.16 
94 0.03 -0.14 0.22 
95 0.13 -0.10 0.24 
96 0.16 0.05 -0.22 
97 0.20 -0.13 -0.23 
98 0.11 -0.12 -0.09 
99 0.10 -0.21 -0.12 
100 -0.20 0.23 -0.12 
101 0.04 0.04 0.22 
102 -0.14 -0.03 0.09 
103 0.20 -0.05 -0.25 
104 0.10 0.08 -0.18 
105 0.23 0.14 -0.14 
106 -0.08 -0.05 0.12 
107 -0.15 0.02 0.02 
108 -0.15 -0.01 -0.21 
109 -0.20 -0.09 -0.16 
110 -0.13 -0.08 0.10 
111 0.09 -0.08 0.13 
112 -0.09 -0.15 0.21 
113 0.14 0.18 0.14 
114 -0.23 0.11 0.23 
115 -0.22 0.12 -0.09 
116 -0.22 0.01 -0.15 
117 -0.20 -0.20 0.11 
118 0.11 -0.12 -0.21 
119 0.14 0.15 -0.16 
120 0.00 0.13 0.12 
121 0.25 -0.10 -0.07 
122 0.04 -0.20 0.08 
123 0.01 0.19 0.24 
124 0.10 -0.20 -0.24 
125 0.14 -0.24 -0.16 

Bonds 

1 1 1 2
2 1 2 3
3 1 3 4

