LAMMPS Description 

125 atoms 
3 bonds 
0 angles 
0 dihedrals 
0 impropers 

2 atom types 
1 bond types 

0.00 10.00 xlo xhi 
0.00 10.00 ylo yhi 
0.00 10.00 zlo zhi 

Atoms 

1 1 1 0.00 0.00 0.00 
2 1 2 0.00 0.00 2.00 
3 1 1 0.00 0.00 4.00 
4 1 1 0.00 0.00 6.00 
5 1 2 0.00 0.00 8.00 
6 1 2 0.00 2.00 0.00 
7 1 1 0.00 2.00 2.00 
8 1 2 0.00 2.00 4.00 
9 1 1 0.00 2.00 6.00 
10 1 2 0.00 2.00 8.00 
11 1 2 0.00 4.00 0.00 
12 1 2 0.00 4.00 2.00 
13 1 2 0.00 4.00 4.00 
14 1 1 0.00 4.00 6.00 
15 1 2 0.00 4.00 8.00 
16 1 2 0.00 6.00 0.00 
17 1 1 0.00 6.00 2.00 
18 1 2 0.00 6.00 4.00 
19 1 2 0.00 6.00 6.00 
20 1 1 0.00 6.00 8.00 
21 1 2 0.00 8.00 0.00 
22 1 1 0.00 8.00 2.00 
23 1 1 0.00 8.00 4.00 
24 1 2 0.00 8.00 6.00 
25 1 1 0.00 8.00 8.00 
26 1 1 2.00 0.00 0.00 
27 1 1 2.00 0.00 2.00 
28 1 2 2.00 0.00 4.00 
29 1 2 2.00 0.00 6.00 
30 1 1 2.00 0.00 8.00 
31 1 2 2.00 2.00 0.00 
32 1 2 2.00 2.00 2.00 
33 1 2 2.00 2.00 4.00 
34 1 2 2.00 2.00 6.00 
35 1 2 2.00 2.00 8.00 
36 1 1 2.00 4.00 0.00 
37 1 2 2.00 4.00 2.00 
38 1 2 2.00 4.00 4.00 
39 1 1 2.00 4.00 6.00 
40 1 2 2.00 4.00 8.00 
41 1 1 2.00 6.00 0.00 
42 1 2 2.00 6.00 2.00 
43 1 2 2.00 6.00 4.00 
44 1 1 2.00 6.00 6.00 
45 1 2 2.00 6.00 8.00 
46 1 1 2.00 8.00 0.00 
47 1 2 2.00 8.00 2.00 
48 1 1 2.00 8.00 4.00 
49 1 2 2.00 8.00 6.00 
50 1 2 2.00 8.00 8.00 
51 1 1 4.00 0.00 0.00 
52 1 1 4.00 0.00 2.00 
53 1 2 4.00 0.00 4.00 
54 1 2 4.00 0.00 6.00 
55 1 1 4.00 0.00 8.00 
56 1 1 4.00 2.00 0.00 
57 1 2 4.00 2.00 2.00 
58 1 1 4.00 2.00 4.00 
59 1 2 4.00 2.00 6.00 
60 1 1 4.00 2.00 8.00 
61 1 1 4.00 4.00 0.00 
62 1 1 4.00 4.00 2.00 
63 1 2 4.00 4.00 4.00 
64 1 1 4.00 4.00 6.00 
65 1 1 4.00 4.00 8.00 
66 1 2 4.00 6.00 0.00 
67 1 2 4.00 6.00 2.00 
68 1 1 4.00 6.00 4.00 
69 1 1 4.00 6.00 6.00 
70 1 1 4.00 6.00 8.00 
71 1 1 4.00 8.00 0.00 
72 1 2 4.00 8.00 2.00 
73 1 2 4.00 8.00 4.00 
74 1 1 4.00 8.00 6.00 
75 1 2 4.00 8.00 8.00 
76 1 1 6.00 0.00 0.00 
77 1 2 6.00 0.00 2.00 
78 1 1 6.00 0.00 4.00 
79 1 1 6.00 0.00 6.00 
80 1 1 6.00 0.00 8.00 
81 1 2 6.00 2.00 0.00 
82 1 2 6.00 2.00 2.00 
83 1 2 6.00 2.00 4.00 
84 1 2 6.00 2.00 6.00 
85 1 2 6.00 2.00 8.00 
86 1 2 6.00 4.00 0.00 
87 1 2 6.00 4.00 2.00 
88 1 2 6.00 4.00 4.00 
89 1 2 6.00 4.00 6.00 
90 1 2 6.00 4.00 8.00 
91 1 1 6.00 6.00 0.00 
92 1 1 6.00 6.00 2.00 
93 1 2 6.00 6.00 4.00 
94 1 1 6.00 6.00 6.00 
95 1 2 6.00 6.00 8.00 
96 1 2 6.00 8.00 0.00 
97 1 1 6.00 8.00 2.00 
98 1 1 6.00 8.00 4.00 
99 1 2 6.00 8.00 6.00 
100 1 1 6.00 8.00 8.00 
101 1 2 8.00 0.00 0.00 
102 1 1 8.00 0.00 2.00 
103 1 2 8.00 0.00 4.00 
104 1 1 8.00 0.00 6.00 
105 1 2 8.00 0.00 8.00 
106 1 1 8.00 2.00 0.00 
107 1 2 8.00 2.00 2.00 
108 1 1 8.00 2.00 4.00 
109 1 2 8.00 2.00 6.00 
110 1 2 8.00 2.00 8.00 
111 1 1 8.00 4.00 0.00 
112 1 2 8.00 4.00 2.00 
113 1 1 8.00 4.00 4.00 
114 1 2 8.00 4.00 6.00 
115 1 1 8.00 4.00 8.00 
116 1 2 8.00 6.00 0.00 
117 1 1 8.00 6.00 2.00 
118 1 2 8.00 6.00 4.00 
119 1 2 8.00 6.00 6.00 
120 1 2 8.00 6.00 8.00 
121 1 2 8.00 8.00 0.00 
122 1 1 8.00 8.00 2.00 
123 1 1 8.00 8.00 4.00 
124 1 2 8.00 8.00 6.00 
125 1 2 8.00 8.00 8.00 

Masses 

1 1.00
2 1.00

Velocities 

1 -0.04 -0.04 -0.08 
2 -0.08 -0.17 -0.08 
3 -0.07 0.09 -0.14 
4 0.24 0.20 -0.00 
5 -0.08 -0.03 0.02 
6 -0.23 -0.07 0.14 
7 0.19 -0.19 -0.07 
8 0.16 0.12 -0.14 
9 0.07 0.12 0.21 
10 -0.07 -0.09 0.23 
11 0.10 -0.23 0.18 
12 0.09 -0.11 -0.21 
13 0.06 0.22 -0.25 
14 0.08 -0.04 0.22 
15 0.03 0.14 -0.16 
16 -0.20 -0.00 0.02 
17 0.08 -0.12 0.00 
18 0.12 0.05 -0.21 
19 0.07 0.09 0.24 
20 -0.11 -0.03 0.23 
21 0.13 0.21 0.22 
22 -0.14 -0.12 0.02 
23 0.16 -0.02 0.05 
24 0.12 -0.12 0.10 
25 0.02 0.11 -0.22 
26 0.02 0.16 0.11 
27 -0.25 -0.20 -0.00 
28 -0.09 0.01 -0.12 
29 0.15 -0.20 -0.10 
30 -0.03 0.15 0.03 
31 -0.12 0.13 -0.10 
32 -0.07 0.25 -0.11 
33 -0.06 0.24 -0.01 
34 0.12 0.22 0.20 
35 0.20 -0.15 0.12 
36 0.15 0.21 -0.17 
37 0.05 -0.22 0.19 
38 0.24 0.13 0.03 
39 0.03 0.21 -0.18 
40 -0.16 -0.25 0.23 
41 -0.04 0.15 -0.03 
42 0.06 0.24 -0.21 
43 0.15 -0.05 -0.08 
44 -0.21 0.20 0.16 
45 0.10 0.24 -0.23 
46 -0.23 0.05 0.10 
47 0.03 0.00 -0.16 
48 -0.14 -0.05 -0.14 
49 -0.14 0.05 0.05 
50 -0.15 0.24 0.09 
51 0.15 -0.13 -0.15 
52 0.15 0.19 0.25 
53 -0.13 0.10 -0.12 
54 0.19 0.20 -0.08 
55 -0.13 -0.09 0.22 
56 0.00 0.06 -0.09 
57 0.14 -0.01 -0.08 
58 0.02 -0.19 -0.14 
59 -0.00 0.22 -0.07 
60 -0.25 -0.17 -0.07 
61 -0.00 0.09 0.01 
62 0.20 0.13 0.17 
63 -0.20 0.11 0.04 
64 -0.19 -0.17 -0.22 
65 -0.24 -0.14 -0.13 
66 0.08 -0.00 -0.12 
67 -0.22 0.20 0.12 
68 -0.11 -0.11 -0.07 
69 0.12 0.23 -0.21 
70 0.07 0.22 -0.24 
71 -0.02 -0.12 0.02 
72 0.09 0.02 -0.21 
73 0.01 -0.01 0.07 
74 -0.18 0.12 0.08 
75 -0.21 0.05 -0.23 
76 -0.15 0.22 -0.02 
77 -0.05 0.20 -0.13 
78 0.09 0.10 -0.13 
79 -0.18 -0.25 0.01 
80 -0.04 -0.03 0.12 
81 -0.19 -0.23 0.17 
82 -0.05 -0.04 0.14 
83 -0.19 -0.10 0.07 
84 0.01 -0.06 -0.19 
85 0.05 -0.15 -0.05 
86 0.05 -0.19 0.21 
87 -0.12 0.16 -0.15 
88 -0.08 -0.23 0.11 
89 -0.10 -0.04 0.09 
90 -0.11 0.11 0.15 
91 -0.20 0.01 0.10 
92 0.09 0.10 0.05 
93 -0.24 -0.02 0.16 
94 0.16 -0.18 -0.02 
95 -0.03 0.17 -0.10 
96 0.22 -0.10 -0.06 
97 -0.09 -0.22 -0.03 
98 -0.21 0.18 0.16 
99 0.18 -0.22 -0.13 
100 -0.21 0.06 0.24 
101 -0.01 -0.03 0.17 
102 -0.04 -0.00 -0.01 
103 -0.11 -0.02 -0.05 
104 -0.18 0.12 0.17 
105 0.11 -0.06 0.13 
106 0.25 -0.17 0.13 
107 -0.00 -0.25 -0.12 
108 0.21 0.13 0.21 
109 -0.07 0.06 0.14 
110 -0.17 0.25 -0.08 
111 0.06 0.25 -0.02 
112 -0.18 -0.19 0.20 
113 -0.21 0.23 0.23 
114 0.08 0.14 -0.06 
115 0.24 -0.16 0.02 
116 -0.01 -0.16 0.24 
117 -0.17 0.15 0.04 
118 -0.01 -0.22 0.02 
119 -0.00 -0.10 0.02 
120 -0.09 -0.01 -0.04 
121 0.10 -0.01 -0.17 
122 -0.10 0.19 -0.20 
123 -0.00 0.00 0.02 
124 -0.01 -0.09 0.08 
125 0.18 -0.14 0.11 

Bonds 

1 1 1 2
2 1 2 3
3 1 3 4

