LAMMPS Description 

1000 atoms 
0 bonds 
0 angles 
0 dihedrals 
0 impropers 

2 atom types 

0.00 20.00 xlo xhi 
0.00 20.00 ylo yhi 
0.00 20.00 zlo zhi 

Atoms 

1 1 0.00 0.00 0.00 
2 2 0.00 0.00 2.00 
3 1 0.00 0.00 4.00 
4 1 0.00 0.00 6.00 
5 2 0.00 0.00 8.00 
6 1 0.00 0.00 10.00 
7 1 0.00 0.00 12.00 
8 1 0.00 0.00 14.00 
9 2 0.00 0.00 16.00 
10 2 0.00 0.00 18.00 
11 1 0.00 2.00 0.00 
12 2 0.00 2.00 2.00 
13 1 0.00 2.00 4.00 
14 1 0.00 2.00 6.00 
15 2 0.00 2.00 8.00 
16 2 0.00 2.00 10.00 
17 1 0.00 2.00 12.00 
18 2 0.00 2.00 14.00 
19 2 0.00 2.00 16.00 
20 2 0.00 2.00 18.00 
21 2 0.00 4.00 0.00 
22 1 0.00 4.00 2.00 
23 2 0.00 4.00 4.00 
24 2 0.00 4.00 6.00 
25 2 0.00 4.00 8.00 
26 2 0.00 4.00 10.00 
27 2 0.00 4.00 12.00 
28 2 0.00 4.00 14.00 
29 1 0.00 4.00 16.00 
30 2 0.00 4.00 18.00 
31 1 0.00 6.00 0.00 
32 2 0.00 6.00 2.00 
33 2 0.00 6.00 4.00 
34 2 0.00 6.00 6.00 
35 2 0.00 6.00 8.00 
36 2 0.00 6.00 10.00 
37 2 0.00 6.00 12.00 
38 2 0.00 6.00 14.00 
39 2 0.00 6.00 16.00 
40 1 0.00 6.00 18.00 
41 2 0.00 8.00 0.00 
42 2 0.00 8.00 2.00 
43 1 0.00 8.00 4.00 
44 1 0.00 8.00 6.00 
45 1 0.00 8.00 8.00 
46 2 0.00 8.00 10.00 
47 1 0.00 8.00 12.00 
48 2 0.00 8.00 14.00 
49 2 0.00 8.00 16.00 
50 2 0.00 8.00 18.00 
51 1 0.00 10.00 0.00 
52 1 0.00 10.00 2.00 
53 1 0.00 10.00 4.00 
54 2 0.00 10.00 6.00 
55 2 0.00 10.00 8.00 
56 1 0.00 10.00 10.00 
57 1 0.00 10.00 12.00 
58 2 0.00 10.00 14.00 
59 2 0.00 10.00 16.00 
60 1 0.00 10.00 18.00 
61 2 0.00 12.00 0.00 
62 2 0.00 12.00 2.00 
63 2 0.00 12.00 4.00 
64 1 0.00 12.00 6.00 
65 2 0.00 12.00 8.00 
66 2 0.00 12.00 10.00 
67 1 0.00 12.00 12.00 
68 2 0.00 12.00 14.00 
69 2 0.00 12.00 16.00 
70 1 0.00 12.00 18.00 
71 1 0.00 14.00 0.00 
72 2 0.00 14.00 2.00 
73 2 0.00 14.00 4.00 
74 1 0.00 14.00 6.00 
75 2 0.00 14.00 8.00 
76 2 0.00 14.00 10.00 
77 1 0.00 14.00 12.00 
78 1 0.00 14.00 14.00 
79 2 0.00 14.00 16.00 
80 1 0.00 14.00 18.00 
81 2 0.00 16.00 0.00 
82 1 0.00 16.00 2.00 
83 1 0.00 16.00 4.00 
84 2 0.00 16.00 6.00 
85 2 0.00 16.00 8.00 
86 2 0.00 16.00 10.00 
87 1 0.00 16.00 12.00 
88 2 0.00 16.00 14.00 
89 2 0.00 16.00 16.00 
90 1 0.00 16.00 18.00 
91 1 0.00 18.00 0.00 
92 1 0.00 18.00 2.00 
93 2 0.00 18.00 4.00 
94 2 0.00 18.00 6.00 
95 2 0.00 18.00 8.00 
96 2 0.00 18.00 10.00 
97 2 0.00 18.00 12.00 
98 1 0.00 18.00 14.00 
99 2 0.00 18.00 16.00 
100 2 0.00 18.00 18.00 
101 2 2.00 0.00 0.00 
102 1 2.00 0.00 2.00 
103 1 2.00 0.00 4.00 
104 1 2.00 0.00 6.00 
105 1 2.00 0.00 8.00 
106 2 2.00 0.00 10.00 
107 1 2.00 0.00 12.00 
108 1 2.00 0.00 14.00 
109 2 2.00 0.00 16.00 
110 1 2.00 0.00 18.00 
111 1 2.00 2.00 0.00 
112 1 2.00 2.00 2.00 
113 2 2.00 2.00 4.00 
114 2 2.00 2.00 6.00 
115 1 2.00 2.00 8.00 
116 1 2.00 2.00 10.00 
117 1 2.00 2.00 12.00 
118 2 2.00 2.00 14.00 
119 1 2.00 2.00 16.00 
120 1 2.00 2.00 18.00 
121 1 2.00 4.00 0.00 
122 1 2.00 4.00 2.00 
123 2 2.00 4.00 4.00 
124 2 2.00 4.00 6.00 
125 1 2.00 4.00 8.00 
126 1 2.00 4.00 10.00 
127 2 2.00 4.00 12.00 
128 1 2.00 4.00 14.00 
129 1 2.00 4.00 16.00 
130 1 2.00 4.00 18.00 
131 2 2.00 6.00 0.00 
132 2 2.00 6.00 2.00 
133 2 2.00 6.00 4.00 
134 1 2.00 6.00 6.00 
135 1 2.00 6.00 8.00 
136 1 2.00 6.00 10.00 
137 2 2.00 6.00 12.00 
138 1 2.00 6.00 14.00 
139 1 2.00 6.00 16.00 
140 1 2.00 6.00 18.00 
141 1 2.00 8.00 0.00 
142 2 2.00 8.00 2.00 
143 1 2.00 8.00 4.00 
144 1 2.00 8.00 6.00 
145 1 2.00 8.00 8.00 
146 1 2.00 8.00 10.00 
147 2 2.00 8.00 12.00 
148 2 2.00 8.00 14.00 
149 1 2.00 8.00 16.00 
150 1 2.00 8.00 18.00 
151 2 2.00 10.00 0.00 
152 2 2.00 10.00 2.00 
153 1 2.00 10.00 4.00 
154 1 2.00 10.00 6.00 
155 1 2.00 10.00 8.00 
156 2 2.00 10.00 10.00 
157 2 2.00 10.00 12.00 
158 1 2.00 10.00 14.00 
159 2 2.00 10.00 16.00 
160 2 2.00 10.00 18.00 
161 2 2.00 12.00 0.00 
162 1 2.00 12.00 2.00 
163 2 2.00 12.00 4.00 
164 1 2.00 12.00 6.00 
165 1 2.00 12.00 8.00 
166 2 2.00 12.00 10.00 
167 2 2.00 12.00 12.00 
168 1 2.00 12.00 14.00 
169 2 2.00 12.00 16.00 
170 1 2.00 12.00 18.00 
171 2 2.00 14.00 0.00 
172 1 2.00 14.00 2.00 
173 1 2.00 14.00 4.00 
174 1 2.00 14.00 6.00 
175 1 2.00 14.00 8.00 
176 2 2.00 14.00 10.00 
177 2 2.00 14.00 12.00 
178 2 2.00 14.00 14.00 
179 2 2.00 14.00 16.00 
180 2 2.00 14.00 18.00 
181 2 2.00 16.00 0.00 
182 2 2.00 16.00 2.00 
183 1 2.00 16.00 4.00 
184 1 2.00 16.00 6.00 
185 2 2.00 16.00 8.00 
186 1 2.00 16.00 10.00 
187 2 2.00 16.00 12.00 
188 2 2.00 16.00 14.00 
189 2 2.00 16.00 16.00 
190 2 2.00 16.00 18.00 
191 2 2.00 18.00 0.00 
192 1 2.00 18.00 2.00 
193 2 2.00 18.00 4.00 
194 1 2.00 18.00 6.00 
195 2 2.00 18.00 8.00 
196 2 2.00 18.00 10.00 
197 2 2.00 18.00 12.00 
198 1 2.00 18.00 14.00 
199 1 2.00 18.00 16.00 
200 2 2.00 18.00 18.00 
201 2 4.00 0.00 0.00 
202 2 4.00 0.00 2.00 
203 1 4.00 0.00 4.00 
204 2 4.00 0.00 6.00 
205 2 4.00 0.00 8.00 
206 2 4.00 0.00 10.00 
207 1 4.00 0.00 12.00 
208 1 4.00 0.00 14.00 
209 1 4.00 0.00 16.00 
210 1 4.00 0.00 18.00 
211 1 4.00 2.00 0.00 
212 2 4.00 2.00 2.00 
213 1 4.00 2.00 4.00 
214 1 4.00 2.00 6.00 
215 2 4.00 2.00 8.00 
216 2 4.00 2.00 10.00 
217 1 4.00 2.00 12.00 
218 2 4.00 2.00 14.00 
219 1 4.00 2.00 16.00 
220 1 4.00 2.00 18.00 
221 1 4.00 4.00 0.00 
222 1 4.00 4.00 2.00 
223 2 4.00 4.00 4.00 
224 2 4.00 4.00 6.00 
225 2 4.00 4.00 8.00 
226 1 4.00 4.00 10.00 
227 2 4.00 4.00 12.00 
228 1 4.00 4.00 14.00 
229 1 4.00 4.00 16.00 
230 2 4.00 4.00 18.00 
231 1 4.00 6.00 0.00 
232 2 4.00 6.00 2.00 
233 2 4.00 6.00 4.00 
234 2 4.00 6.00 6.00 
235 1 4.00 6.00 8.00 
236 1 4.00 6.00 10.00 
237 2 4.00 6.00 12.00 
238 1 4.00 6.00 14.00 
239 1 4.00 6.00 16.00 
240 2 4.00 6.00 18.00 
241 1 4.00 8.00 0.00 
242 2 4.00 8.00 2.00 
243 2 4.00 8.00 4.00 
244 2 4.00 8.00 6.00 
245 2 4.00 8.00 8.00 
246 1 4.00 8.00 10.00 
247 2 4.00 8.00 12.00 
248 2 4.00 8.00 14.00 
249 1 4.00 8.00 16.00 
250 1 4.00 8.00 18.00 
251 1 4.00 10.00 0.00 
252 2 4.00 10.00 2.00 
253 1 4.00 10.00 4.00 
254 2 4.00 10.00 6.00 
255 1 4.00 10.00 8.00 
256 2 4.00 10.00 10.00 
257 2 4.00 10.00 12.00 
258 1 4.00 10.00 14.00 
259 2 4.00 10.00 16.00 
260 2 4.00 10.00 18.00 
261 1 4.00 12.00 0.00 
262 1 4.00 12.00 2.00 
263 2 4.00 12.00 4.00 
264 2 4.00 12.00 6.00 
265 1 4.00 12.00 8.00 
266 1 4.00 12.00 10.00 
267 1 4.00 12.00 12.00 
268 1 4.00 12.00 14.00 
269 2 4.00 12.00 16.00 
270 2 4.00 12.00 18.00 
271 2 4.00 14.00 0.00 
272 2 4.00 14.00 2.00 
273 2 4.00 14.00 4.00 
274 2 4.00 14.00 6.00 
275 2 4.00 14.00 8.00 
276 2 4.00 14.00 10.00 
277 1 4.00 14.00 12.00 
278 1 4.00 14.00 14.00 
279 1 4.00 14.00 16.00 
280 2 4.00 14.00 18.00 
281 1 4.00 16.00 0.00 
282 2 4.00 16.00 2.00 
283 1 4.00 16.00 4.00 
284 1 4.00 16.00 6.00 
285 1 4.00 16.00 8.00 
286 1 4.00 16.00 10.00 
287 2 4.00 16.00 12.00 
288 2 4.00 16.00 14.00 
289 1 4.00 16.00 16.00 
290 1 4.00 16.00 18.00 
291 2 4.00 18.00 0.00 
292 2 4.00 18.00 2.00 
293 1 4.00 18.00 4.00 
294 1 4.00 18.00 6.00 
295 1 4.00 18.00 8.00 
296 1 4.00 18.00 10.00 
297 1 4.00 18.00 12.00 
298 1 4.00 18.00 14.00 
299 2 4.00 18.00 16.00 
300 1 4.00 18.00 18.00 
301 2 6.00 0.00 0.00 
302 2 6.00 0.00 2.00 
303 2 6.00 0.00 4.00 
304 1 6.00 0.00 6.00 
305 2 6.00 0.00 8.00 
306 1 6.00 0.00 10.00 
307 2 6.00 0.00 12.00 
308 1 6.00 0.00 14.00 
309 2 6.00 0.00 16.00 
310 1 6.00 0.00 18.00 
311 2 6.00 2.00 0.00 
312 2 6.00 2.00 2.00 
313 1 6.00 2.00 4.00 
314 1 6.00 2.00 6.00 
315 2 6.00 2.00 8.00 
316 2 6.00 2.00 10.00 
317 1 6.00 2.00 12.00 
318 2 6.00 2.00 14.00 
319 1 6.00 2.00 16.00 
320 2 6.00 2.00 18.00 
321 2 6.00 4.00 0.00 
322 1 6.00 4.00 2.00 
323 1 6.00 4.00 4.00 
324 2 6.00 4.00 6.00 
325 1 6.00 4.00 8.00 
326 1 6.00 4.00 10.00 
327 1 6.00 4.00 12.00 
328 2 6.00 4.00 14.00 
329 1 6.00 4.00 16.00 
330 1 6.00 4.00 18.00 
331 2 6.00 6.00 0.00 
332 2 6.00 6.00 2.00 
333 2 6.00 6.00 4.00 
334 2 6.00 6.00 6.00 
335 1 6.00 6.00 8.00 
336 2 6.00 6.00 10.00 
337 1 6.00 6.00 12.00 
338 1 6.00 6.00 14.00 
339 1 6.00 6.00 16.00 
340 1 6.00 6.00 18.00 
341 1 6.00 8.00 0.00 
342 1 6.00 8.00 2.00 
343 1 6.00 8.00 4.00 
344 1 6.00 8.00 6.00 
345 2 6.00 8.00 8.00 
346 1 6.00 8.00 10.00 
347 2 6.00 8.00 12.00 
348 1 6.00 8.00 14.00 
349 1 6.00 8.00 16.00 
350 2 6.00 8.00 18.00 
351 1 6.00 10.00 0.00 
352 1 6.00 10.00 2.00 
353 2 6.00 10.00 4.00 
354 1 6.00 10.00 6.00 
355 1 6.00 10.00 8.00 
356 1 6.00 10.00 10.00 
357 1 6.00 10.00 12.00 
358 2 6.00 10.00 14.00 
359 1 6.00 10.00 16.00 
360 1 6.00 10.00 18.00 
361 2 6.00 12.00 0.00 
362 1 6.00 12.00 2.00 
363 2 6.00 12.00 4.00 
364 1 6.00 12.00 6.00 
365 2 6.00 12.00 8.00 
366 1 6.00 12.00 10.00 
367 2 6.00 12.00 12.00 
368 1 6.00 12.00 14.00 
369 2 6.00 12.00 16.00 
370 1 6.00 12.00 18.00 
371 1 6.00 14.00 0.00 
372 2 6.00 14.00 2.00 
373 2 6.00 14.00 4.00 
374 1 6.00 14.00 6.00 
375 2 6.00 14.00 8.00 
376 2 6.00 14.00 10.00 
377 1 6.00 14.00 12.00 
378 2 6.00 14.00 14.00 
379 2 6.00 14.00 16.00 
380 2 6.00 14.00 18.00 
381 1 6.00 16.00 0.00 
382 1 6.00 16.00 2.00 
383 2 6.00 16.00 4.00 
384 2 6.00 16.00 6.00 
385 2 6.00 16.00 8.00 
386 2 6.00 16.00 10.00 
387 2 6.00 16.00 12.00 
388 2 6.00 16.00 14.00 
389 1 6.00 16.00 16.00 
390 2 6.00 16.00 18.00 
391 2 6.00 18.00 0.00 
392 1 6.00 18.00 2.00 
393 2 6.00 18.00 4.00 
394 2 6.00 18.00 6.00 
395 1 6.00 18.00 8.00 
396 1 6.00 18.00 10.00 
397 1 6.00 18.00 12.00 
398 1 6.00 18.00 14.00 
399 1 6.00 18.00 16.00 
400 1 6.00 18.00 18.00 
401 2 8.00 0.00 0.00 
402 2 8.00 0.00 2.00 
403 2 8.00 0.00 4.00 
404 1 8.00 0.00 6.00 
405 2 8.00 0.00 8.00 
406 2 8.00 0.00 10.00 
407 2 8.00 0.00 12.00 
408 2 8.00 0.00 14.00 
409 2 8.00 0.00 16.00 
410 1 8.00 0.00 18.00 
411 2 8.00 2.00 0.00 
412 1 8.00 2.00 2.00 
413 1 8.00 2.00 4.00 
414 2 8.00 2.00 6.00 
415 2 8.00 2.00 8.00 
416 2 8.00 2.00 10.00 
417 1 8.00 2.00 12.00 
418 2 8.00 2.00 14.00 
419 2 8.00 2.00 16.00 
420 2 8.00 2.00 18.00 
421 2 8.00 4.00 0.00 
422 2 8.00 4.00 2.00 
423 1 8.00 4.00 4.00 
424 1 8.00 4.00 6.00 
425 1 8.00 4.00 8.00 
426 2 8.00 4.00 10.00 
427 1 8.00 4.00 12.00 
428 2 8.00 4.00 14.00 
429 1 8.00 4.00 16.00 
430 1 8.00 4.00 18.00 
431 2 8.00 6.00 0.00 
432 2 8.00 6.00 2.00 
433 2 8.00 6.00 4.00 
434 1 8.00 6.00 6.00 
435 1 8.00 6.00 8.00 
436 1 8.00 6.00 10.00 
437 1 8.00 6.00 12.00 
438 2 8.00 6.00 14.00 
439 1 8.00 6.00 16.00 
440 1 8.00 6.00 18.00 
441 1 8.00 8.00 0.00 
442 1 8.00 8.00 2.00 
443 1 8.00 8.00 4.00 
444 1 8.00 8.00 6.00 
445 2 8.00 8.00 8.00 
446 1 8.00 8.00 10.00 
447 2 8.00 8.00 12.00 
448 2 8.00 8.00 14.00 
449 1 8.00 8.00 16.00 
450 1 8.00 8.00 18.00 
451 2 8.00 10.00 0.00 
452 2 8.00 10.00 2.00 
453 2 8.00 10.00 4.00 
454 2 8.00 10.00 6.00 
455 1 8.00 10.00 8.00 
456 1 8.00 10.00 10.00 
457 2 8.00 10.00 12.00 
458 1 8.00 10.00 14.00 
459 2 8.00 10.00 16.00 
460 1 8.00 10.00 18.00 
461 2 8.00 12.00 0.00 
462 2 8.00 12.00 2.00 
463 2 8.00 12.00 4.00 
464 1 8.00 12.00 6.00 
465 2 8.00 12.00 8.00 
466 2 8.00 12.00 10.00 
467 2 8.00 12.00 12.00 
468 1 8.00 12.00 14.00 
469 1 8.00 12.00 16.00 
470 2 8.00 12.00 18.00 
471 2 8.00 14.00 0.00 
472 1 8.00 14.00 2.00 
473 1 8.00 14.00 4.00 
474 1 8.00 14.00 6.00 
475 1 8.00 14.00 8.00 
476 1 8.00 14.00 10.00 
477 1 8.00 14.00 12.00 
478 1 8.00 14.00 14.00 
479 1 8.00 14.00 16.00 
480 2 8.00 14.00 18.00 
481 1 8.00 16.00 0.00 
482 2 8.00 16.00 2.00 
483 1 8.00 16.00 4.00 
484 1 8.00 16.00 6.00 
485 1 8.00 16.00 8.00 
486 1 8.00 16.00 10.00 
487 2 8.00 16.00 12.00 
488 1 8.00 16.00 14.00 
489 1 8.00 16.00 16.00 
490 1 8.00 16.00 18.00 
491 1 8.00 18.00 0.00 
492 2 8.00 18.00 2.00 
493 1 8.00 18.00 4.00 
494 2 8.00 18.00 6.00 
495 2 8.00 18.00 8.00 
496 2 8.00 18.00 10.00 
497 2 8.00 18.00 12.00 
498 2 8.00 18.00 14.00 
499 2 8.00 18.00 16.00 
500 2 8.00 18.00 18.00 
501 1 10.00 0.00 0.00 
502 2 10.00 0.00 2.00 
503 1 10.00 0.00 4.00 
504 2 10.00 0.00 6.00 
505 2 10.00 0.00 8.00 
506 1 10.00 0.00 10.00 
507 1 10.00 0.00 12.00 
508 2 10.00 0.00 14.00 
509 2 10.00 0.00 16.00 
510 2 10.00 0.00 18.00 
511 1 10.00 2.00 0.00 
512 2 10.00 2.00 2.00 
513 2 10.00 2.00 4.00 
514 1 10.00 2.00 6.00 
515 2 10.00 2.00 8.00 
516 1 10.00 2.00 10.00 
517 2 10.00 2.00 12.00 
518 1 10.00 2.00 14.00 
519 1 10.00 2.00 16.00 
520 1 10.00 2.00 18.00 
521 2 10.00 4.00 0.00 
522 1 10.00 4.00 2.00 
523 1 10.00 4.00 4.00 
524 2 10.00 4.00 6.00 
525 1 10.00 4.00 8.00 
526 2 10.00 4.00 10.00 
527 1 10.00 4.00 12.00 
528 2 10.00 4.00 14.00 
529 2 10.00 4.00 16.00 
530 1 10.00 4.00 18.00 
531 2 10.00 6.00 0.00 
532 2 10.00 6.00 2.00 
533 2 10.00 6.00 4.00 
534 1 10.00 6.00 6.00 
535 1 10.00 6.00 8.00 
536 1 10.00 6.00 10.00 
537 1 10.00 6.00 12.00 
538 2 10.00 6.00 14.00 
539 1 10.00 6.00 16.00 
540 1 10.00 6.00 18.00 
541 2 10.00 8.00 0.00 
542 1 10.00 8.00 2.00 
543 2 10.00 8.00 4.00 
544 2 10.00 8.00 6.00 
545 1 10.00 8.00 8.00 
546 2 10.00 8.00 10.00 
547 1 10.00 8.00 12.00 
548 2 10.00 8.00 14.00 
549 1 10.00 8.00 16.00 
550 2 10.00 8.00 18.00 
551 2 10.00 10.00 0.00 
552 2 10.00 10.00 2.00 
553 1 10.00 10.00 4.00 
554 2 10.00 10.00 6.00 
555 2 10.00 10.00 8.00 
556 2 10.00 10.00 10.00 
557 1 10.00 10.00 12.00 
558 1 10.00 10.00 14.00 
559 1 10.00 10.00 16.00 
560 2 10.00 10.00 18.00 
561 2 10.00 12.00 0.00 
562 2 10.00 12.00 2.00 
563 2 10.00 12.00 4.00 
564 1 10.00 12.00 6.00 
565 1 10.00 12.00 8.00 
566 1 10.00 12.00 10.00 
567 2 10.00 12.00 12.00 
568 1 10.00 12.00 14.00 
569 2 10.00 12.00 16.00 
570 1 10.00 12.00 18.00 
571 2 10.00 14.00 0.00 
572 1 10.00 14.00 2.00 
573 2 10.00 14.00 4.00 
574 1 10.00 14.00 6.00 
575 2 10.00 14.00 8.00 
576 2 10.00 14.00 10.00 
577 1 10.00 14.00 12.00 
578 2 10.00 14.00 14.00 
579 2 10.00 14.00 16.00 
580 1 10.00 14.00 18.00 
581 2 10.00 16.00 0.00 
582 1 10.00 16.00 2.00 
583 1 10.00 16.00 4.00 
584 2 10.00 16.00 6.00 
585 2 10.00 16.00 8.00 
586 2 10.00 16.00 10.00 
587 1 10.00 16.00 12.00 
588 2 10.00 16.00 14.00 
589 1 10.00 16.00 16.00 
590 2 10.00 16.00 18.00 
591 1 10.00 18.00 0.00 
592 2 10.00 18.00 2.00 
593 2 10.00 18.00 4.00 
594 1 10.00 18.00 6.00 
595 1 10.00 18.00 8.00 
596 1 10.00 18.00 10.00 
597 1 10.00 18.00 12.00 
598 2 10.00 18.00 14.00 
599 2 10.00 18.00 16.00 
600 1 10.00 18.00 18.00 
601 1 12.00 0.00 0.00 
602 1 12.00 0.00 2.00 
603 2 12.00 0.00 4.00 
604 1 12.00 0.00 6.00 
605 2 12.00 0.00 8.00 
606 2 12.00 0.00 10.00 
607 1 12.00 0.00 12.00 
608 2 12.00 0.00 14.00 
609 2 12.00 0.00 16.00 
610 2 12.00 0.00 18.00 
611 1 12.00 2.00 0.00 
612 1 12.00 2.00 2.00 
613 1 12.00 2.00 4.00 
614 1 12.00 2.00 6.00 
615 2 12.00 2.00 8.00 
616 1 12.00 2.00 10.00 
617 2 12.00 2.00 12.00 
618 1 12.00 2.00 14.00 
619 2 12.00 2.00 16.00 
620 1 12.00 2.00 18.00 
621 2 12.00 4.00 0.00 
622 1 12.00 4.00 2.00 
623 1 12.00 4.00 4.00 
624 2 12.00 4.00 6.00 
625 1 12.00 4.00 8.00 
626 2 12.00 4.00 10.00 
627 2 12.00 4.00 12.00 
628 2 12.00 4.00 14.00 
629 2 12.00 4.00 16.00 
630 1 12.00 4.00 18.00 
631 2 12.00 6.00 0.00 
632 1 12.00 6.00 2.00 
633 2 12.00 6.00 4.00 
634 2 12.00 6.00 6.00 
635 1 12.00 6.00 8.00 
636 2 12.00 6.00 10.00 
637 1 12.00 6.00 12.00 
638 1 12.00 6.00 14.00 
639 2 12.00 6.00 16.00 
640 1 12.00 6.00 18.00 
641 2 12.00 8.00 0.00 
642 1 12.00 8.00 2.00 
643 2 12.00 8.00 4.00 
644 2 12.00 8.00 6.00 
645 2 12.00 8.00 8.00 
646 1 12.00 8.00 10.00 
647 1 12.00 8.00 12.00 
648 1 12.00 8.00 14.00 
649 2 12.00 8.00 16.00 
650 2 12.00 8.00 18.00 
651 1 12.00 10.00 0.00 
652 1 12.00 10.00 2.00 
653 1 12.00 10.00 4.00 
654 1 12.00 10.00 6.00 
655 2 12.00 10.00 8.00 
656 2 12.00 10.00 10.00 
657 2 12.00 10.00 12.00 
658 1 12.00 10.00 14.00 
659 2 12.00 10.00 16.00 
660 1 12.00 10.00 18.00 
661 2 12.00 12.00 0.00 
662 2 12.00 12.00 2.00 
663 2 12.00 12.00 4.00 
664 2 12.00 12.00 6.00 
665 2 12.00 12.00 8.00 
666 1 12.00 12.00 10.00 
667 1 12.00 12.00 12.00 
668 1 12.00 12.00 14.00 
669 1 12.00 12.00 16.00 
670 2 12.00 12.00 18.00 
671 2 12.00 14.00 0.00 
672 1 12.00 14.00 2.00 
673 2 12.00 14.00 4.00 
674 1 12.00 14.00 6.00 
675 1 12.00 14.00 8.00 
676 2 12.00 14.00 10.00 
677 2 12.00 14.00 12.00 
678 2 12.00 14.00 14.00 
679 2 12.00 14.00 16.00 
680 1 12.00 14.00 18.00 
681 2 12.00 16.00 0.00 
682 1 12.00 16.00 2.00 
683 1 12.00 16.00 4.00 
684 2 12.00 16.00 6.00 
685 2 12.00 16.00 8.00 
686 1 12.00 16.00 10.00 
687 2 12.00 16.00 12.00 
688 2 12.00 16.00 14.00 
689 1 12.00 16.00 16.00 
690 2 12.00 16.00 18.00 
691 2 12.00 18.00 0.00 
692 1 12.00 18.00 2.00 
693 2 12.00 18.00 4.00 
694 1 12.00 18.00 6.00 
695 2 12.00 18.00 8.00 
696 2 12.00 18.00 10.00 
697 2 12.00 18.00 12.00 
698 1 12.00 18.00 14.00 
699 1 12.00 18.00 16.00 
700 2 12.00 18.00 18.00 
701 1 14.00 0.00 0.00 
702 1 14.00 0.00 2.00 
703 1 14.00 0.00 4.00 
704 2 14.00 0.00 6.00 
705 2 14.00 0.00 8.00 
706 1 14.00 0.00 10.00 
707 2 14.00 0.00 12.00 
708 1 14.00 0.00 14.00 
709 1 14.00 0.00 16.00 
710 2 14.00 0.00 18.00 
711 2 14.00 2.00 0.00 
712 1 14.00 2.00 2.00 
713 1 14.00 2.00 4.00 
714 2 14.00 2.00 6.00 
715 2 14.00 2.00 8.00 
716 1 14.00 2.00 10.00 
717 1 14.00 2.00 12.00 
718 2 14.00 2.00 14.00 
719 2 14.00 2.00 16.00 
720 2 14.00 2.00 18.00 
721 1 14.00 4.00 0.00 
722 1 14.00 4.00 2.00 
723 2 14.00 4.00 4.00 
724 2 14.00 4.00 6.00 
725 1 14.00 4.00 8.00 
726 1 14.00 4.00 10.00 
727 2 14.00 4.00 12.00 
728 2 14.00 4.00 14.00 
729 1 14.00 4.00 16.00 
730 2 14.00 4.00 18.00 
731 2 14.00 6.00 0.00 
732 1 14.00 6.00 2.00 
733 2 14.00 6.00 4.00 
734 2 14.00 6.00 6.00 
735 1 14.00 6.00 8.00 
736 2 14.00 6.00 10.00 
737 1 14.00 6.00 12.00 
738 1 14.00 6.00 14.00 
739 1 14.00 6.00 16.00 
740 1 14.00 6.00 18.00 
741 1 14.00 8.00 0.00 
742 1 14.00 8.00 2.00 
743 1 14.00 8.00 4.00 
744 1 14.00 8.00 6.00 
745 1 14.00 8.00 8.00 
746 2 14.00 8.00 10.00 
747 1 14.00 8.00 12.00 
748 2 14.00 8.00 14.00 
749 2 14.00 8.00 16.00 
750 2 14.00 8.00 18.00 
751 2 14.00 10.00 0.00 
752 1 14.00 10.00 2.00 
753 1 14.00 10.00 4.00 
754 1 14.00 10.00 6.00 
755 1 14.00 10.00 8.00 
756 2 14.00 10.00 10.00 
757 2 14.00 10.00 12.00 
758 1 14.00 10.00 14.00 
759 2 14.00 10.00 16.00 
760 1 14.00 10.00 18.00 
761 2 14.00 12.00 0.00 
762 2 14.00 12.00 2.00 
763 1 14.00 12.00 4.00 
764 2 14.00 12.00 6.00 
765 1 14.00 12.00 8.00 
766 2 14.00 12.00 10.00 
767 1 14.00 12.00 12.00 
768 1 14.00 12.00 14.00 
769 2 14.00 12.00 16.00 
770 1 14.00 12.00 18.00 
771 2 14.00 14.00 0.00 
772 2 14.00 14.00 2.00 
773 2 14.00 14.00 4.00 
774 2 14.00 14.00 6.00 
775 2 14.00 14.00 8.00 
776 1 14.00 14.00 10.00 
777 2 14.00 14.00 12.00 
778 2 14.00 14.00 14.00 
779 2 14.00 14.00 16.00 
780 2 14.00 14.00 18.00 
781 1 14.00 16.00 0.00 
782 2 14.00 16.00 2.00 
783 1 14.00 16.00 4.00 
784 2 14.00 16.00 6.00 
785 2 14.00 16.00 8.00 
786 1 14.00 16.00 10.00 
787 2 14.00 16.00 12.00 
788 2 14.00 16.00 14.00 
789 2 14.00 16.00 16.00 
790 1 14.00 16.00 18.00 
791 1 14.00 18.00 0.00 
792 1 14.00 18.00 2.00 
793 1 14.00 18.00 4.00 
794 2 14.00 18.00 6.00 
795 2 14.00 18.00 8.00 
796 2 14.00 18.00 10.00 
797 1 14.00 18.00 12.00 
798 2 14.00 18.00 14.00 
799 2 14.00 18.00 16.00 
800 1 14.00 18.00 18.00 
801 1 16.00 0.00 0.00 
802 1 16.00 0.00 2.00 
803 2 16.00 0.00 4.00 
804 1 16.00 0.00 6.00 
805 1 16.00 0.00 8.00 
806 1 16.00 0.00 10.00 
807 1 16.00 0.00 12.00 
808 2 16.00 0.00 14.00 
809 1 16.00 0.00 16.00 
810 2 16.00 0.00 18.00 
811 1 16.00 2.00 0.00 
812 1 16.00 2.00 2.00 
813 2 16.00 2.00 4.00 
814 2 16.00 2.00 6.00 
815 2 16.00 2.00 8.00 
816 1 16.00 2.00 10.00 
817 1 16.00 2.00 12.00 
818 2 16.00 2.00 14.00 
819 2 16.00 2.00 16.00 
820 2 16.00 2.00 18.00 
821 2 16.00 4.00 0.00 
822 1 16.00 4.00 2.00 
823 2 16.00 4.00 4.00 
824 1 16.00 4.00 6.00 
825 2 16.00 4.00 8.00 
826 1 16.00 4.00 10.00 
827 2 16.00 4.00 12.00 
828 2 16.00 4.00 14.00 
829 1 16.00 4.00 16.00 
830 1 16.00 4.00 18.00 
831 2 16.00 6.00 0.00 
832 2 16.00 6.00 2.00 
833 2 16.00 6.00 4.00 
834 2 16.00 6.00 6.00 
835 1 16.00 6.00 8.00 
836 2 16.00 6.00 10.00 
837 2 16.00 6.00 12.00 
838 2 16.00 6.00 14.00 
839 1 16.00 6.00 16.00 
840 2 16.00 6.00 18.00 
841 2 16.00 8.00 0.00 
842 1 16.00 8.00 2.00 
843 2 16.00 8.00 4.00 
844 1 16.00 8.00 6.00 
845 2 16.00 8.00 8.00 
846 2 16.00 8.00 10.00 
847 2 16.00 8.00 12.00 
848 2 16.00 8.00 14.00 
849 1 16.00 8.00 16.00 
850 2 16.00 8.00 18.00 
851 2 16.00 10.00 0.00 
852 2 16.00 10.00 2.00 
853 1 16.00 10.00 4.00 
854 1 16.00 10.00 6.00 
855 1 16.00 10.00 8.00 
856 2 16.00 10.00 10.00 
857 1 16.00 10.00 12.00 
858 2 16.00 10.00 14.00 
859 1 16.00 10.00 16.00 
860 1 16.00 10.00 18.00 
861 1 16.00 12.00 0.00 
862 1 16.00 12.00 2.00 
863 1 16.00 12.00 4.00 
864 1 16.00 12.00 6.00 
865 2 16.00 12.00 8.00 
866 2 16.00 12.00 10.00 
867 1 16.00 12.00 12.00 
868 1 16.00 12.00 14.00 
869 1 16.00 12.00 16.00 
870 1 16.00 12.00 18.00 
871 1 16.00 14.00 0.00 
872 1 16.00 14.00 2.00 
873 1 16.00 14.00 4.00 
874 1 16.00 14.00 6.00 
875 2 16.00 14.00 8.00 
876 2 16.00 14.00 10.00 
877 2 16.00 14.00 12.00 
878 1 16.00 14.00 14.00 
879 2 16.00 14.00 16.00 
880 1 16.00 14.00 18.00 
881 1 16.00 16.00 0.00 
882 2 16.00 16.00 2.00 
883 2 16.00 16.00 4.00 
884 1 16.00 16.00 6.00 
885 1 16.00 16.00 8.00 
886 1 16.00 16.00 10.00 
887 1 16.00 16.00 12.00 
888 1 16.00 16.00 14.00 
889 2 16.00 16.00 16.00 
890 2 16.00 16.00 18.00 
891 2 16.00 18.00 0.00 
892 2 16.00 18.00 2.00 
893 2 16.00 18.00 4.00 
894 1 16.00 18.00 6.00 
895 2 16.00 18.00 8.00 
896 2 16.00 18.00 10.00 
897 1 16.00 18.00 12.00 
898 1 16.00 18.00 14.00 
899 2 16.00 18.00 16.00 
900 1 16.00 18.00 18.00 
901 1 18.00 0.00 0.00 
902 2 18.00 0.00 2.00 
903 2 18.00 0.00 4.00 
904 1 18.00 0.00 6.00 
905 1 18.00 0.00 8.00 
906 2 18.00 0.00 10.00 
907 2 18.00 0.00 12.00 
908 1 18.00 0.00 14.00 
909 2 18.00 0.00 16.00 
910 2 18.00 0.00 18.00 
911 2 18.00 2.00 0.00 
912 1 18.00 2.00 2.00 
913 2 18.00 2.00 4.00 
914 2 18.00 2.00 6.00 
915 1 18.00 2.00 8.00 
916 2 18.00 2.00 10.00 
917 1 18.00 2.00 12.00 
918 2 18.00 2.00 14.00 
919 1 18.00 2.00 16.00 
920 2 18.00 2.00 18.00 
921 1 18.00 4.00 0.00 
922 2 18.00 4.00 2.00 
923 1 18.00 4.00 4.00 
924 2 18.00 4.00 6.00 
925 1 18.00 4.00 8.00 
926 2 18.00 4.00 10.00 
927 1 18.00 4.00 12.00 
928 2 18.00 4.00 14.00 
929 2 18.00 4.00 16.00 
930 1 18.00 4.00 18.00 
931 1 18.00 6.00 0.00 
932 1 18.00 6.00 2.00 
933 2 18.00 6.00 4.00 
934 1 18.00 6.00 6.00 
935 1 18.00 6.00 8.00 
936 1 18.00 6.00 10.00 
937 1 18.00 6.00 12.00 
938 1 18.00 6.00 14.00 
939 2 18.00 6.00 16.00 
940 1 18.00 6.00 18.00 
941 1 18.00 8.00 0.00 
942 1 18.00 8.00 2.00 
943 1 18.00 8.00 4.00 
944 2 18.00 8.00 6.00 
945 1 18.00 8.00 8.00 
946 2 18.00 8.00 10.00 
947 1 18.00 8.00 12.00 
948 1 18.00 8.00 14.00 
949 1 18.00 8.00 16.00 
950 1 18.00 8.00 18.00 
951 2 18.00 10.00 0.00 
952 1 18.00 10.00 2.00 
953 1 18.00 10.00 4.00 
954 1 18.00 10.00 6.00 
955 2 18.00 10.00 8.00 
956 2 18.00 10.00 10.00 
957 1 18.00 10.00 12.00 
958 1 18.00 10.00 14.00 
959 1 18.00 10.00 16.00 
960 2 18.00 10.00 18.00 
961 1 18.00 12.00 0.00 
962 2 18.00 12.00 2.00 
963 2 18.00 12.00 4.00 
964 1 18.00 12.00 6.00 
965 2 18.00 12.00 8.00 
966 2 18.00 12.00 10.00 
967 2 18.00 12.00 12.00 
968 2 18.00 12.00 14.00 
969 2 18.00 12.00 16.00 
970 1 18.00 12.00 18.00 
971 1 18.00 14.00 0.00 
972 1 18.00 14.00 2.00 
973 1 18.00 14.00 4.00 
974 2 18.00 14.00 6.00 
975 2 18.00 14.00 8.00 
976 2 18.00 14.00 10.00 
977 2 18.00 14.00 12.00 
978 1 18.00 14.00 14.00 
979 1 18.00 14.00 16.00 
980 1 18.00 14.00 18.00 
981 2 18.00 16.00 0.00 
982 1 18.00 16.00 2.00 
983 1 18.00 16.00 4.00 
984 2 18.00 16.00 6.00 
985 2 18.00 16.00 8.00 
986 1 18.00 16.00 10.00 
987 1 18.00 16.00 12.00 
988 2 18.00 16.00 14.00 
989 2 18.00 16.00 16.00 
990 1 18.00 16.00 18.00 
991 1 18.00 18.00 0.00 
992 1 18.00 18.00 2.00 
993 1 18.00 18.00 4.00 
994 2 18.00 18.00 6.00 
995 1 18.00 18.00 8.00 
996 2 18.00 18.00 10.00 
997 1 18.00 18.00 12.00 
998 2 18.00 18.00 14.00 
999 1 18.00 18.00 16.00 
1000 1 18.00 18.00 18.00 

Masses 

1 1.00
2 1.00

Velocities 

1 -0.08 -0.10 -0.21 
2 0.09 -0.14 -0.11 
3 0.25 0.03 0.20 
4 0.18 -0.20 -0.06 
5 0.03 -0.07 0.10 
6 0.20 0.05 0.06 
7 0.01 -0.13 0.10 
8 0.07 -0.22 0.08 
9 0.13 0.13 -0.13 
10 -0.02 -0.07 0.02 
11 0.18 -0.24 0.02 
12 0.17 -0.13 0.18 
13 -0.24 0.09 0.03 
14 0.06 -0.21 0.10 
15 -0.00 -0.18 -0.15 
16 -0.07 -0.14 -0.06 
17 -0.03 0.09 -0.24 
18 -0.11 0.22 -0.02 
19 -0.03 -0.13 0.15 
20 0.07 -0.21 -0.10 
21 -0.07 -0.08 0.06 
22 0.11 0.16 -0.09 
23 0.16 0.07 0.17 
24 -0.00 0.01 -0.21 
25 -0.06 0.04 0.23 
26 -0.07 -0.17 -0.21 
27 -0.09 0.13 0.11 
28 -0.03 -0.10 0.20 
29 -0.23 -0.16 0.16 
30 -0.19 0.22 0.04 
31 0.12 -0.11 0.04 
32 0.13 -0.02 0.17 
33 0.15 0.19 0.16 
34 0.04 -0.08 0.01 
35 -0.17 0.20 -0.06 
36 -0.20 0.03 0.04 
37 -0.13 -0.13 -0.11 
38 -0.11 0.13 0.03 
39 0.02 0.17 0.17 
40 -0.23 -0.07 0.20 
41 0.20 -0.22 -0.07 
42 -0.13 -0.19 -0.08 
43 -0.14 0.18 0.12 
44 -0.22 -0.24 0.23 
45 0.13 0.24 0.11 
46 0.12 -0.05 -0.10 
47 0.19 0.12 0.01 
48 0.06 -0.21 -0.09 
49 0.15 -0.03 0.11 
50 -0.21 0.00 -0.19 
51 -0.05 0.25 -0.14 
52 0.15 -0.20 0.12 
53 0.03 -0.23 -0.24 
54 0.22 -0.01 -0.23 
55 0.23 -0.14 -0.22 
56 -0.18 -0.19 0.11 
57 -0.11 -0.09 0.02 
58 -0.04 0.00 0.24 
59 -0.02 0.11 -0.22 
60 -0.03 -0.18 -0.13 
61 -0.11 -0.14 0.11 
62 -0.06 0.09 -0.02 
63 -0.20 0.23 0.00 
64 0.08 0.02 -0.10 
65 -0.09 -0.13 0.17 
66 0.02 0.11 -0.07 
67 0.25 -0.02 0.21 
68 -0.06 -0.08 0.05 
69 -0.05 -0.05 -0.02 
70 0.08 0.25 0.23 
71 0.23 0.23 0.13 
72 0.22 -0.00 0.25 
73 0.20 -0.09 0.14 
74 -0.03 0.21 0.18 
75 0.15 -0.10 0.18 
76 -0.05 -0.07 0.14 
77 -0.03 -0.19 -0.14 
78 0.17 0.14 -0.12 
79 0.09 -0.02 0.03 
80 -0.13 0.05 0.12 
81 0.22 0.22 -0.16 
82 -0.20 0.03 0.04 
83 -0.10 -0.02 -0.04 
84 0.19 0.02 0.13 
85 -0.25 -0.12 -0.23 
86 0.14 -0.05 -0.04 
87 -0.10 -0.19 -0.03 
88 0.04 0.07 -0.08 
89 -0.13 0.20 0.07 
90 0.12 0.21 0.18 
91 0.07 0.04 0.19 
92 0.02 0.11 0.10 
93 0.17 -0.02 0.15 
94 0.03 -0.05 0.02 
95 0.03 -0.21 -0.24 
96 -0.18 -0.09 0.23 
97 0.05 -0.12 0.23 
98 0.03 -0.19 -0.11 
99 0.25 0.11 0.24 
100 -0.24 -0.00 -0.14 
101 0.08 0.03 0.23 
102 0.18 -0.14 0.02 
103 0.01 -0.08 0.12 
104 0.19 -0.02 -0.17 
105 -0.11 -0.24 -0.01 
106 -0.24 -0.03 0.06 
107 -0.04 0.04 -0.21 
108 -0.14 -0.04 0.25 
109 0.23 -0.04 0.10 
110 -0.15 -0.19 0.13 
111 -0.18 -0.15 -0.02 
112 -0.18 -0.17 0.06 
113 0.20 -0.19 0.04 
114 0.23 -0.08 0.13 
115 0.15 0.22 0.09 
116 -0.04 0.21 -0.15 
117 -0.21 0.10 0.05 
118 -0.12 -0.24 0.03 
119 -0.03 0.18 -0.23 
120 0.16 -0.14 -0.04 
121 -0.05 0.00 -0.02 
122 -0.01 -0.17 0.25 
123 -0.00 -0.10 -0.13 
124 -0.01 0.15 0.13 
125 -0.16 -0.19 -0.10 
126 -0.22 0.09 -0.19 
127 -0.07 0.13 0.22 
128 0.11 -0.10 0.06 
129 0.10 -0.05 -0.24 
130 -0.13 -0.09 0.08 
131 0.07 0.10 0.16 
132 -0.07 0.23 0.17 
133 -0.18 0.19 -0.02 
134 -0.06 0.00 0.15 
135 -0.19 0.17 -0.05 
136 0.02 0.13 -0.12 
137 -0.06 0.15 0.18 
138 0.21 -0.13 0.11 
139 -0.18 0.11 0.06 
140 0.09 0.25 -0.21 
141 -0.20 -0.23 0.18 
142 -0.18 -0.21 0.01 
143 -0.15 -0.19 0.02 
144 -0.06 -0.22 0.12 
145 0.19 -0.12 -0.14 
146 -0.03 0.03 0.06 
147 0.16 0.20 -0.00 
148 -0.09 -0.16 0.02 
149 0.04 0.18 0.14 
150 -0.20 -0.12 0.17 
151 0.17 0.24 0.02 
152 -0.10 0.24 -0.16 
153 0.23 0.14 0.07 
154 -0.08 0.14 0.20 
155 -0.12 -0.24 -0.05 
156 0.05 0.01 -0.18 
157 0.01 -0.01 0.14 
158 0.10 -0.22 -0.03 
159 -0.06 0.03 -0.23 
160 -0.04 0.05 -0.11 
161 -0.21 0.08 0.04 
162 0.18 0.18 -0.12 
163 -0.17 0.03 -0.00 
164 -0.01 0.17 0.16 
165 -0.22 0.13 0.12 
166 -0.04 0.16 0.13 
167 -0.22 0.12 -0.15 
168 -0.13 0.16 0.19 
169 -0.13 -0.13 0.09 
170 0.20 0.12 0.21 
171 -0.14 -0.13 -0.25 
172 -0.09 0.06 -0.01 
173 0.20 -0.03 -0.02 
174 0.04 -0.07 -0.20 
175 -0.11 -0.01 -0.22 
176 0.05 0.17 0.06 
177 -0.08 0.01 -0.09 
178 0.02 -0.23 -0.18 
179 -0.11 -0.12 -0.06 
180 -0.06 -0.07 0.08 
181 -0.12 -0.18 -0.03 
182 0.02 0.03 0.24 
183 -0.11 0.08 0.11 
184 -0.15 0.03 -0.14 
185 0.08 -0.03 0.20 
186 0.05 0.20 0.08 
187 0.14 -0.21 -0.20 
188 -0.15 0.11 -0.10 
189 -0.13 0.19 0.21 
190 0.25 -0.04 -0.07 
191 0.15 -0.13 0.03 
192 -0.24 -0.05 0.05 
193 -0.13 0.21 0.00 
194 0.17 0.21 -0.19 
195 -0.04 -0.16 -0.12 
196 -0.11 0.17 0.10 
197 -0.15 0.10 -0.02 
198 0.13 0.02 0.16 
199 0.18 -0.08 0.12 
200 0.10 0.18 -0.13 
201 0.20 -0.04 0.22 
202 -0.10 0.05 0.13 
203 -0.01 0.21 -0.18 
204 -0.04 -0.15 -0.20 
205 -0.15 -0.11 0.05 
206 -0.17 -0.05 -0.14 
207 -0.02 -0.20 0.22 
208 -0.02 -0.20 0.16 
209 0.01 0.12 0.17 
210 0.14 -0.22 -0.21 
211 -0.03 0.01 0.03 
212 -0.12 0.19 -0.02 
213 0.21 -0.23 0.01 
214 -0.06 -0.06 -0.21 
215 0.16 -0.11 0.08 
216 -0.03 -0.12 -0.06 
217 0.01 -0.20 0.08 
218 -0.09 -0.13 0.14 
219 0.05 0.09 0.01 
220 -0.21 -0.22 -0.03 
221 -0.14 -0.19 -0.18 
222 0.10 0.08 -0.23 
223 -0.13 0.02 0.14 
224 0.04 -0.00 -0.14 
225 -0.06 -0.21 -0.04 
226 0.17 -0.08 -0.16 
227 0.07 0.01 0.07 
228 -0.10 -0.23 0.00 
229 0.01 0.15 0.24 
230 -0.16 0.12 -0.21 
231 0.12 0.10 -0.04 
232 -0.15 -0.05 -0.08 
233 -0.05 0.00 0.22 
234 -0.14 -0.03 0.01 
235 0.05 -0.18 -0.06 
236 -0.19 -0.23 0.01 
237 0.16 -0.13 0.24 
238 -0.20 0.04 0.15 
239 -0.05 -0.06 -0.08 
240 0.07 -0.07 -0.03 
241 -0.18 -0.14 0.16 
242 0.17 -0.05 -0.07 
243 0.15 0.06 0.01 
244 -0.01 0.10 -0.20 
245 0.03 0.11 0.18 
246 -0.14 0.23 0.15 
247 0.22 -0.01 0.07 
248 0.21 -0.12 -0.10 
249 0.05 0.19 -0.05 
250 0.16 0.09 -0.08 
251 -0.05 -0.01 -0.10 
252 0.07 0.21 -0.16 
253 0.22 0.10 -0.18 
254 0.07 -0.21 -0.14 
255 0.08 0.05 -0.25 
256 0.06 -0.19 -0.23 
257 -0.21 0.22 0.04 
258 0.16 -0.11 -0.08 
259 0.15 -0.17 0.20 
260 0.12 -0.10 -0.14 
261 0.07 -0.22 0.13 
262 0.05 -0.20 -0.22 
263 -0.10 0.07 -0.05 
264 -0.07 0.18 0.02 
265 0.22 0.25 -0.12 
266 0.13 0.24 0.20 
267 0.03 -0.24 0.10 
268 -0.19 0.03 0.17 
269 -0.02 0.13 -0.24 
270 0.04 -0.19 0.11 
271 -0.13 0.15 0.03 
272 0.19 0.04 0.16 
273 0.09 -0.05 0.21 
274 -0.15 -0.24 0.14 
275 -0.24 -0.10 -0.04 
276 0.25 -0.24 -0.13 
277 0.06 0.23 -0.17 
278 -0.17 -0.22 -0.20 
279 0.04 -0.09 -0.04 
280 0.25 -0.20 -0.17 
281 -0.22 0.22 -0.20 
282 -0.08 0.01 0.19 
283 0.06 0.01 0.19 
284 0.16 0.09 -0.14 
285 -0.16 -0.01 0.21 
286 -0.14 -0.14 -0.20 
287 0.19 0.07 -0.02 
288 0.15 0.23 0.11 
289 0.10 0.03 0.23 
290 0.13 0.07 0.14 
291 -0.15 0.12 0.21 
292 0.17 -0.01 -0.19 
293 -0.24 -0.11 -0.21 
294 -0.06 -0.03 0.10 
295 -0.05 -0.03 0.04 
296 0.13 0.18 0.11 
297 -0.01 0.02 0.22 
298 -0.12 -0.09 0.21 
299 0.08 0.17 0.09 
300 0.16 -0.16 -0.21 
301 -0.16 -0.20 -0.07 
302 -0.12 -0.21 -0.09 