LAMMPS Description 

125 atoms 
0 bonds 
0 angles 
0 dihedrals 
0 impropers 

2 atom types 

0.00 10.00 xlo xhi 
0.00 10.00 ylo yhi 
0.00 10.00 zlo zhi 

Atoms 

1 1 0.00 0.00 0.00 
2 2 0.00 0.00 2.00 
3 1 0.00 0.00 4.00 
4 2 0.00 0.00 6.00 
5 1 0.00 0.00 8.00 
6 1 0.00 2.00 0.00 
7 1 0.00 2.00 2.00 
8 2 0.00 2.00 4.00 
9 1 0.00 2.00 6.00 
10 2 0.00 2.00 8.00 
11 1 0.00 4.00 0.00 
12 2 0.00 4.00 2.00 
13 2 0.00 4.00 4.00 
14 1 0.00 4.00 6.00 
15 2 0.00 4.00 8.00 
16 1 0.00 6.00 0.00 
17 1 0.00 6.00 2.00 
18 1 0.00 6.00 4.00 
19 2 0.00 6.00 6.00 
20 1 0.00 6.00 8.00 
21 1 0.00 8.00 0.00 
22 2 0.00 8.00 2.00 
23 2 0.00 8.00 4.00 
24 2 0.00 8.00 6.00 
25 2 0.00 8.00 8.00 
26 1 2.00 0.00 0.00 
27 1 2.00 0.00 2.00 
28 1 2.00 0.00 4.00 
29 2 2.00 0.00 6.00 
30 2 2.00 0.00 8.00 
31 1 2.00 2.00 0.00 
32 1 2.00 2.00 2.00 
33 2 2.00 2.00 4.00 
34 2 2.00 2.00 6.00 
35 1 2.00 2.00 8.00 
36 2 2.00 4.00 0.00 
37 2 2.00 4.00 2.00 
38 2 2.00 4.00 4.00 
39 2 2.00 4.00 6.00 
40 1 2.00 4.00 8.00 
41 2 2.00 6.00 0.00 
42 1 2.00 6.00 2.00 
43 2 2.00 6.00 4.00 
44 1 2.00 6.00 6.00 
45 1 2.00 6.00 8.00 
46 1 2.00 8.00 0.00 
47 2 2.00 8.00 2.00 
48 1 2.00 8.00 4.00 
49 1 2.00 8.00 6.00 
50 2 2.00 8.00 8.00 
51 1 4.00 0.00 0.00 
52 2 4.00 0.00 2.00 
53 2 4.00 0.00 4.00 
54 1 4.00 0.00 6.00 
55 1 4.00 0.00 8.00 
56 2 4.00 2.00 0.00 
57 2 4.00 2.00 2.00 
58 2 4.00 2.00 4.00 
59 1 4.00 2.00 6.00 
60 1 4.00 2.00 8.00 
61 1 4.00 4.00 0.00 
62 1 4.00 4.00 2.00 
63 1 4.00 4.00 4.00 
64 1 4.00 4.00 6.00 
65 2 4.00 4.00 8.00 
66 2 4.00 6.00 0.00 
67 1 4.00 6.00 2.00 
68 1 4.00 6.00 4.00 
69 1 4.00 6.00 6.00 
70 1 4.00 6.00 8.00 
71 2 4.00 8.00 0.00 
72 2 4.00 8.00 2.00 
73 1 4.00 8.00 4.00 
74 1 4.00 8.00 6.00 
75 2 4.00 8.00 8.00 
76 2 6.00 0.00 0.00 
77 1 6.00 0.00 2.00 
78 1 6.00 0.00 4.00 
79 2 6.00 0.00 6.00 
80 1 6.00 0.00 8.00 
81 1 6.00 2.00 0.00 
82 1 6.00 2.00 2.00 
83 1 6.00 2.00 4.00 
84 1 6.00 2.00 6.00 
85 1 6.00 2.00 8.00 
86 2 6.00 4.00 0.00 
87 1 6.00 4.00 2.00 
88 1 6.00 4.00 4.00 
89 1 6.00 4.00 6.00 
90 2 6.00 4.00 8.00 
91 2 6.00 6.00 0.00 
92 1 6.00 6.00 2.00 
93 1 6.00 6.00 4.00 
94 1 6.00 6.00 6.00 
95 1 6.00 6.00 8.00 
96 1 6.00 8.00 0.00 
97 1 6.00 8.00 2.00 
98 2 6.00 8.00 4.00 
99 1 6.00 8.00 6.00 
100 1 6.00 8.00 8.00 
101 1 8.00 0.00 0.00 
102 1 8.00 0.00 2.00 
103 2 8.00 0.00 4.00 
104 1 8.00 0.00 6.00 
105 2 8.00 0.00 8.00 
106 1 8.00 2.00 0.00 
107 1 8.00 2.00 2.00 
108 2 8.00 2.00 4.00 
109 1 8.00 2.00 6.00 
110 1 8.00 2.00 8.00 
111 2 8.00 4.00 0.00 
112 1 8.00 4.00 2.00 
113 1 8.00 4.00 4.00 
114 2 8.00 4.00 6.00 
115 2 8.00 4.00 8.00 
116 1 8.00 6.00 0.00 
117 2 8.00 6.00 2.00 
118 1 8.00 6.00 4.00 
119 1 8.00 6.00 6.00 
120 1 8.00 6.00 8.00 
121 2 8.00 8.00 0.00 
122 2 8.00 8.00 2.00 
123 2 8.00 8.00 4.00 
124 1 8.00 8.00 6.00 
125 1 8.00 8.00 8.00 

Masses 

1 1.00
2 1.00

Velocities 

1 -0.04 -0.02 -0.11 
2 -0.05 0.20 0.03 
3 0.04 0.07 0.09 
4 0.21 -0.18 -0.17 
5 -0.01 0.09 0.11 
6 -0.14 -0.03 -0.02 
7 -0.22 0.07 -0.23 
8 0.08 0.04 0.24 
9 -0.09 -0.18 -0.22 
10 -0.08 -0.22 0.09 
11 -0.01 0.22 -0.08 
12 0.13 0.14 -0.09 
13 0.02 0.16 0.14 
14 -0.16 -0.17 -0.01 
15 0.15 -0.24 0.10 
16 0.13 0.11 -0.09 
17 0.12 0.14 0.15 
18 0.07 0.07 0.17 
19 0.19 0.02 0.23 
20 -0.03 0.21 -0.00 
21 0.03 0.15 0.09 
22 -0.14 0.01 -0.02 
23 -0.23 0.00 -0.24 
24 0.08 -0.25 -0.13 
25 0.07 -0.24 -0.01 
26 0.01 -0.22 0.25 
27 -0.17 0.21 0.07 
28 0.24 0.24 -0.15 
29 0.19 0.24 0.23 
30 -0.07 0.01 0.02 
31 -0.17 -0.21 0.06 
32 0.07 0.08 0.20 
33 -0.21 -0.04 -0.01 
34 -0.20 -0.22 0.23 
35 -0.21 0.25 0.21 
36 0.20 0.24 -0.09 
37 -0.24 -0.23 0.16 
38 0.12 -0.02 0.24 
39 0.13 -0.04 0.25 
40 0.15 -0.10 0.10 
41 -0.12 0.24 -0.05 
42 0.14 -0.19 0.05 
43 0.12 -0.25 0.16 
44 0.13 0.14 0.01 
45 -0.11 0.19 0.07 
46 -0.03 -0.21 0.21 
47 -0.15 -0.14 -0.07 
48 -0.03 0.15 -0.13 
49 -0.13 0.25 0.20 
50 -0.16 0.11 0.16 
51 0.18 0.06 0.12 
52 0.13 0.09 0.24 
53 -0.15 0.19 0.02 
54 -0.11 -0.09 0.03 
55 0.21 -0.08 0.21 
56 -0.01 -0.10 -0.09 
57 0.20 -0.03 -0.22 
58 -0.22 -0.11 0.19 
59 0.15 0.10 0.23 
60 0.12 0.18 0.19 
61 -0.07 0.13 0.05 
62 -0.14 0.17 0.13 
63 -0.07 -0.22 -0.09 
64 -0.04 -0.00 0.17 
65 -0.21 0.17 0.08 
66 0.18 0.02 -0.24 
67 0.11 0.06 0.05 
68 0.09 -0.22 -0.17 
69 0.13 0.06 -0.22 
70 -0.20 0.04 0.10 
71 0.12 0.18 -0.11 
72 -0.10 -0.16 -0.05 
73 0.17 -0.18 -0.10 
74 -0.17 0.19 0.23 
75 -0.07 -0.21 -0.20 
76 -0.11 -0.03 0.14 
77 0.04 -0.12 -0.17 
78 -0.12 -0.09 -0.21 
79 0.08 0.11 -0.08 
80 0.15 -0.07 0.22 
81 0.05 -0.24 0.17 
82 -0.19 0.07 -0.22 
83 -0.14 0.21 0.11 
84 0.01 -0.15 0.11 
85 0.16 -0.09 0.17 
86 -0.17 -0.06 -0.19 
87 -0.02 -0.07 -0.16 
88 0.08 -0.13 0.19 
89 0.13 0.14 -0.23 
90 -0.08 0.06 -0.02 
91 -0.07 -0.22 -0.08 
92 0.01 -0.08 -0.19 
93 -0.11 -0.07 0.25 
94 0.16 -0.08 -0.18 
95 0.04 -0.11 -0.10 
96 0.25 0.09 -0.20 
97 -0.09 -0.01 -0.03 
98 0.02 -0.21 0.15 
99 0.15 -0.12 0.11 
100 -0.18 -0.17 -0.02 
101 -0.01 0.20 0.05 
102 -0.07 0.08 -0.15 
103 0.19 -0.12 -0.20 
104 -0.03 -0.13 -0.14 
105 -0.08 0.13 0.02 
106 0.17 0.13 0.20 
107 -0.18 -0.02 -0.15 
108 -0.10 -0.20 0.14 
109 0.20 -0.07 -0.18 
110 -0.13 -0.12 -0.16 
111 -0.02 0.03 -0.23 
112 -0.14 -0.15 -0.21 
113 -0.14 0.20 -0.14 
114 0.04 -0.06 -0.22 
115 -0.13 -0.09 -0.04 
116 -0.14 -0.20 -0.17 
117 0.19 0.04 -0.15 
118 0.22 0.21 -0.11 
119 -0.08 -0.22 0.24 
120 0.18 -0.20 -0.01 
121 -0.11 -0.06 0.23 
122 0.01 0.03 0.11 
123 0.12 -0.05 0.13 
124 0.13 -0.02 -0.04 
125 0.05 0.13 -0.22 

