125
Atoms. Timestep: 0
1 0 0 0
2 0 0 2
1 0 0 4
2 0 0 6
1 0 0 8
1 0 2 0
1 0 2 2
2 0 2 4
1 0 2 6
2 0 2 8
1 0 4 0
2 0 4 2
2 0 4 4
1 0 4 6
2 0 4 8
1 0 6 0
1 0 6 2
1 0 6 4
2 0 6 6
1 0 6 8
1 0 8 0
2 0 8 2
2 0 8 4
2 0 8 6
2 0 8 8
1 2 0 0
1 2 0 2
1 2 0 4
2 2 0 6
2 2 0 8
1 2 2 0
1 2 2 2
2 2 2 4
2 2 2 6
1 2 2 8
2 2 4 0
2 2 4 2
2 2 4 4
2 2 4 6
1 2 4 8
2 2 6 0
1 2 6 2
2 2 6 4
1 2 6 6
1 2 6 8
1 2 8 0
2 2 8 2
1 2 8 4
1 2 8 6
2 2 8 8
1 4 0 0
2 4 0 2
2 4 0 4
1 4 0 6
1 4 0 8
2 4 2 0
2 4 2 2
2 4 2 4
1 4 2 6
1 4 2 8
1 4 4 0
1 4 4 2
1 4 4 4
1 4 4 6
2 4 4 8
2 4 6 0
1 4 6 2
1 4 6 4
1 4 6 6
1 4 6 8
2 4 8 0
2 4 8 2
1 4 8 4
1 4 8 6
2 4 8 8
2 6 0 0
1 6 0 2
1 6 0 4
2 6 0 6
1 6 0 8
1 6 2 0
1 6 2 2
1 6 2 4
1 6 2 6
1 6 2 8
2 6 4 0
1 6 4 2
1 6 4 4
1 6 4 6
2 6 4 8
2 6 6 0
1 6 6 2
1 6 6 4
1 6 6 6
1 6 6 8
1 6 8 0
1 6 8 2
2 6 8 4
1 6 8 6
1 6 8 8
1 8 0 0
1 8 0 2
2 8 0 4
1 8 0 6
2 8 0 8
1 8 2 0
1 8 2 2
2 8 2 4
1 8 2 6
1 8 2 8
2 8 4 0
1 8 4 2
1 8 4 4
2 8 4 6
2 8 4 8
1 8 6 0
2 8 6 2
1 8 6 4
1 8 6 6
1 8 6 8
2 8 8 0
2 8 8 2
2 8 8 4
1 8 8 6
1 8 8 8
125
Atoms. Timestep: 1
1 -0.00012 -6e-05 -0.000330798
2 -0.00015 0.000599711 2.00009
1 0.000120798 0.00021 4.00027
2 0.000630289 -0.000540289 5.99949
1 -3e-05 0.00027 8.00033
1 -0.00042 1.99991 -5.92024e-05
1 -0.00066 2.00021 1.99931
2 0.00024 2.00012 4.00072
1 -0.000270798 1.99946 5.99934
2 -0.00024 1.99934 8.00027
1 -3e-05 4.00066 -0.00024
2 0.000390289 4.00042 1.99973
2 6.02892e-05 4.00048 4.00042
1 -0.00048 3.99949 5.99997
2 0.000449711 3.99928 8.0003
1 0.000389202 6.00033 -0.00027
1 0.000360798 6.00042 2.00045
1 0.000209202 6.00021 4.00051
2 0.00057 6.00006 6.00069
1 -9e-05 6.00063 8
1 9.07976e-05 8.00045 0.00027
2 -0.00042 8.00003 1.99994
2 -0.000690289 8 3.99928
2 0.00024 7.99925 5.99961
2 0.000210289 7.99928 7.99997
1 2.00003 -0.00066 0.000750798
1 1.99949 0.000630798 2.00021
1 2.00072 0.000719202 3.99955
2 2.00057 0.000720289 6.00069
2 1.99979 2.97108e-05 8.00006
1 1.99949 1.99937 0.00018
1 2.00021 2.00024 2.0006
2 1.99937 1.99988 3.99997
2 1.9994 1.99934 6.00069
1 1.99937 2.00075 8.00063
2 2.0006 4.00072 -0.000269711
2 1.99928 3.99931 2.00048
2 2.00036 3.99994 4.00072
2 2.00039 3.99988 6.00075
1 2.00045 3.9997 8.0003
2 1.99964 6.00072 -0.00015
1 2.00042 5.99943 2.00015
2 2.00036 5.99925 4.00048
1 2.00039 6.00042 6.00003
1 1.99967 6.00057 8.00021
1 1.99991 7.99937 0.00063
2 1.99955 7.99958 1.99979
1 1.99991 8.00045 3.99961
1 1.99961 8.00075 6.0006
2 1.99952 8.00033 8.00048
1 4.00054 0.00018 0.000359202
2 4.00039 0.00027 2.00072
2 3.99955 0.000570289 4.00006
1 3.99967 -0.00027 6.00009
1 4.00063 -0.000239202 8.00063
2 3.99997 1.9997 -0.000269711
2 4.0006 1.99991 1.99934
2 3.99934 1.99967 4.00057
1 4.00045 2.0003 6.00069
1 4.00036 2.00054 8.00057
1 3.99979 4.00039 0.000150798
1 3.99958 4.00051 2.00039
1 3.99979 3.99934 3.99973
1 3.99988 4 6.00051
2 3.99937 4.00051 8.00024
2 4.00054 6.00006 -0.00072
1 4.00033 6.00018 2.00015
1 4.00027 5.99934 3.99949
1 4.00039 6.00018 5.99934
1 3.9994 6.00012 8.0003
2 4.00036 8.00054 -0.00033
2 3.9997 7.99952 1.99985
1 4.00051 7.99946 3.9997
1 3.99949 8.00057 6.00069
2 3.99979 7.99937 7.9994
2 5.99967 -9e-05 0.00042
1 6.00012 -0.00036 1.99949
1 5.99964 -0.000269202 3.99937
2 6.00024 0.00033 5.99976
1 6.00045 -0.00021 8.00066
1 6.00015 1.99928 0.00051
1 5.99943 2.00021 1.99934
1 5.99958 2.00063 4.00033
1 6.00003 1.99955 6.00033
1 6.00048 1.99973 8.00051
2 5.99949 3.99982 -0.000570289
1 5.99994 3.99979 1.99952
1 6.00024 3.99961 4.00057
1 6.00039 4.00042 5.99931
2 5.99976 4.00018 7.99994
2 5.99979 5.99934 -0.00024
1 6.00003 5.99976 1.99943
1 5.99967 5.99979 4.00075
1 6.00048 5.99976 5.99946
1 6.00012 5.99967 7.9997
1 6.00075 8.00027 -0.0006
1 5.99973 7.99997 1.99991
2 6.00006 7.99937 4.00045
1 6.00045 7.99964 6.00033
1 5.99946 7.99949 7.99994
1 7.99997 0.000600798 0.000150798
1 7.99979 0.000240798 1.99955
2 8.00057 -0.00036 3.9994
1 7.99991 -0.00039 5.99958
2 7.99976 0.00039 8.00006
1 8.00051 2.00039 0.0006
1 7.99946 1.99994 1.99955
2 7.9997 1.9994 4.00042
1 8.0006 1.99979 5.99946
1 7.99961 1.99964 7.99952
2 7.99994 4.00009 -0.000690289
1 7.99958 3.99955 1.99937
1 7.99958 4.0006 3.99958
2 8.00012 3.99982 5.99934
2 7.99961 3.99973 7.99988
1 7.99958 5.9994 -0.000510798
2 8.00057 6.00012 1.99955
1 8.00066 6.00063 3.99967
1 7.99976 5.99934 6.00072
1 8.00054 5.9994 7.99997
2 7.99967 7.99982 0.000690289
2 8.00003 8.00009 2.00033
2 8.00036 7.99985 4.00039
1 8.00039 7.99994 5.99988
1 8.00015 8.00039 7.99934
125
Atoms. Timestep: 2
1 -0.000240001 -0.000120002 -0.000663192
2 -0.0003 0.00119884 2.00018
1 0.000243187 0.00042 4.00054
2 0.00126116 -0.00108116 5.99898
1 -6e-05 0.00054 8.00066
1 -0.000840004 1.99982 -0.000116806
1 -0.00132001 2.00042 1.99862
2 0.000480003 2.00024 4.00144
1 -0.000543195 1.99892 5.99868
2 -0.00048 1.99868 8.00054
1 -6e-05 4.00132 -0.00048
2 0.000781159 4.00084 1.99946
2 0.000121156 4.00096 4.00084
1 -0.00096 3.99898 5.99994
2 0.000898845 3.99856 8.0006
1 0.000776813 6.00066 -0.000540005
1 0.00072319 6.00084 2.0009
1 0.000416807 6.00042 4.00102
2 0.00114 6.00012 6.00138
1 -0.000180002 6.00126 8
1 0.000183192 8.0009 0.000539999
2 -0.000840001 8.00006 1.99988
2 -0.00138116 8 3.99856
2 0.00048 7.9985 5.99922
2 0.000421158 7.99856 7.99994
1 2.00006 -0.00132 0.00150319
1 1.99898 0.00126319 2.00042
1 2.00144 0.00143681 3.9991
2 2.00114 0.00144116 6.00138
2 1.99958 5.88428e-05 8.00012
1 1.99898 1.99874 0.000359995
1 2.00042 2.00048 2.0012
2 1.99874 1.99976 3.99994
2 1.9988 1.99868 6.00138
1 1.99874 2.0015 8.00126
2 2.0012 4.00144 -0.000538845
2 1.99856 3.99862 2.00096
2 2.00072 3.99988 4.00144
2 2.00078 3.99976 6.0015
1 2.0009 3.9994 8.0006
2 1.99928 6.00144 -0.0003
1 2.00084 5.99886 2.0003
2 2.00072 5.9985 4.00096
1 2.00078 6.00084 6.00006
1 1.99934 6.00114 8.00042
1 1.99982 7.99874 0.00126
2 1.9991 7.99916 1.99958
1 1.99982 8.0009 3.99922
1 1.99922 8.0015 6.0012
2 1.99904 8.00066 8.00096
1 4.00108 0.000359999 0.000716808
2 4.00078 0.000540002 2.00144
2 3.9991 0.00114116 4.00012
1 3.99934 -0.000540008 6.00018
1 4.00126 -0.000476813 8.00126
2 3.99994 1.9994 -0.000538843
2 4.0012 1.99982 1.99868
2 3.99868 1.99934 4.00114
1 4.0009 2.0006 6.00138
1 4.00072 2.00108 8.00114
1 3.99958 4.00078 0.000303189
1 3.99916 4.00102 2.00078
1 3.99958 3.99868 3.99946
1 3.99976 4 6.00102
2 3.99874 4.00102 8.00048
2 4.00108 6.00012 -0.00144
1 4.00066 6.00036 2.0003
1 4.00054 5.99868 3.99898
1 4.00078 6.00036 5.99868
1 3.9988 6.00024 8.0006
2 4.00072 8.00108 -0.00066
2 3.9994 7.99904 1.9997
1 4.00102 7.99892 3.9994
1 3.99898 8.00114 6.00138
2 3.99958 7.99874 7.9988
2 5.99934 -0.00018 0.00084
1 6.00024 -0.000720004 1.99898
1 5.99928 -0.000536815 3.99874
2 6.00048 0.00066 5.99952
1 6.0009 -0.000419998 8.00132
1 6.0003 1.99856 0.00102001
1 5.99886 2.00042 1.99868
1 5.99916 2.00126 4.00066
1 6.00006 1.9991 6.00066
1 6.00096 1.99946 8.00102
2 5.99898 3.99964 -0.00114116
1 5.99988 3.99958 1.99904
1 6.00048 3.99922 4.00114
1 6.00078 4.00084 5.99862
2 5.99952 4.00036 7.99988
2 5.99958 5.99868 -0.00048
1 6.00006 5.99952 1.99886
1 5.99934 5.99958 4.0015
1 6.00096 5.99952 5.99892
1 6.00024 5.99934 7.9994
1 6.0015 8.00054 -0.00120001
1 5.99946 7.99994 1.99982
2 6.00012 7.99874 4.0009
1 6.0009 7.99928 6.00066
1 5.99892 7.99898 7.99988
1 7.99994 0.00120319 0.000303194
1 7.99958 0.000483192 1.9991
2 8.00114 -0.00072 3.9988
1 7.99982 -0.000780003 5.99916
2 7.99952 0.00078 8.00012
1 8.00102 2.00078 0.00120001
1 7.99892 1.99988 1.9991
2 7.9994 1.9988 4.00084
1 8.0012 1.99958 5.99892
1 7.99922 1.99928 7.99904
2 7.99988 4.00018 -0.00138116
1 7.99916 3.9991 1.99874
1 7.99916 4.0012 3.99916
2 8.00024 3.99964 5.99868
2 7.99922 3.99946 7.99976
1 7.99916 5.9988 -0.00102319
2 8.00114 6.00024 1.9991
1 8.00132 6.00126 3.99934
1 7.99952 5.99868 6.00144
1 8.00108 5.9988 7.99994
2 7.99934 7.99964 0.00138116
2 8.00006 8.00018 2.00066
2 8.00072 7.9997 4.00078
1 8.00078 7.99988 5.99976
1 8.0003 8.00078 7.99868
125
Atoms. Timestep: 3
1 -0.000360005 -0.000180009 -0.000997186
2 -0.00045 0.0017974 2.00027
1 0.000367165 0.000630002 4.00081
2 0.0018926 -0.0016226 5.99847
1 -9e-05 0.00081 8.001
1 -0.00126002 1.99973 -0.000172806
1 -0.00198002 2.00063 1.99792
2 0.000720012 2.00036 4.00216
1 -0.000817198 1.99839 5.99802
2 -0.000719999 1.99802 8.00081
1 -9.00002e-05 4.00198 -0.00072
2 0.00117261 4.00126 1.99919
2 0.000182601 4.00144 4.00126
1 -0.00144 3.99846 5.99991
2 0.0013474 3.99784 8.0009
1 0.00116284 6.00099 -0.000810021
1 0.00108718 6.00126 2.00135
1 0.000622812 6.00063 4.00152
2 0.00171 6.00018 6.00207
1 -0.000270007 6.00189 8.00001
1 0.000277183 8.00135 0.000809998
2 -0.00126 8.00009 1.99982
2 -0.00207261 8 3.99784
2 0.00072 7.99775 5.99883
2 0.000632608 7.99784 7.99991
1 2.00009 -0.00197999 0.00225718
1 1.99847 0.00189718 2.00063
1 2.00215 0.00215283 3.99864
2 2.00171 0.00216261 6.00207
2 1.99937 8.73954e-05 8.00018
1 1.99846 1.9981 0.000539982
1 2.00062 2.00071 2.00179
2 1.99811 1.99964 3.99991
2 1.9982 1.99802 6.00207
1 1.99812 2.00226 8.0019
2 2.0018 4.00216 -0.000807404
2 1.99784 3.99793 2.00144
2 2.00108 3.99982 4.00216
2 2.00117 3.99964 6.00225
1 2.00135 3.9991 8.0009
2 1.99892 6.00216 -0.000450001
1 2.00126 5.99829 2.00045
2 2.00108 5.99775 4.00144
1 2.00118 6.00127 6.0001
1 1.99901 6.0017 8.00062
1 1.99972 7.99812 0.00189
2 1.99865 7.99874 1.99937
1 1.99974 8.00136 3.99884
1 1.99884 8.00224 6.00179
2 1.99856 8.00099 8.00144
1 4.00161 0.000539996 0.00107282
2 4.00117 0.00081001 2.00216
2 3.99865 0.00171261 4.00018
1 3.99901 -0.000810031 6.00028
1 4.0019 -0.000712837 8.00189
2 3.99991 1.9991 -0.000807395
2 4.0018 1.99973 1.99802
2 3.99802 1.99901 4.00171
1 4.00136 2.0009 6.00208
1 4.00108 2.00161 8.0017
1 3.99937 4.00117 0.000457173
1 3.99875 4.00154 2.00117
1 3.99938 3.99803 3.99919
1 3.99965 4 6.00152
2 3.99811 4.00153 8.00072
2 4.00162 6.00018 -0.00216
1 4.00099 6.00053 2.00046
1 4.00082 5.99802 3.99847
1 4.00117 6.00054 5.99802
1 3.9982 6.00036 8.00089
2 4.00108 8.00162 -0.00099
2 3.9991 7.99856 1.99955
1 4.00152 7.99837 3.99911
1 3.99847 8.00171 6.00206
2 3.99937 7.99811 7.9982
2 5.99901 -0.00027 0.00126
1 6.00037 -0.00108002 1.99848
1 5.99892 -0.000802841 3.9981
2 6.00072 0.000990001 5.99928
1 6.00134 -0.000629992 8.00198
1 6.00046 1.99784 0.00153003
1 5.9983 2.00063 1.99802
1 5.99874 2.00189 4.00099
1 6.00009 1.99866 6.00099
1 6.00144 1.99918 8.00153
2 5.99847 3.99946 -0.00171261
1 5.99982 3.99937 1.99857
1 6.00072 3.99883 4.00171
1 6.00116 4.00126 5.99792
2 5.99928 4.00054 7.99982
2 5.99937 5.99802 -0.000720001
1 6.00008 5.99928 1.9983
1 5.99901 5.99936 4.00225
1 6.00144 5.99928 5.99838
1 6.00036 5.99902 7.99909
1 6.00225 8.00081 -0.00180002
1 5.99919 7.99991 1.99972
2 6.00018 7.99811 4.00135
1 6.00135 7.99891 6.001
1 5.99839 7.99847 7.99982
1 7.99992 0.00180718 0.000457192
1 7.99936 0.000727185 1.99864
2 8.00171 -0.00108 3.9982
1 7.99973 -0.00117001 5.99874
2 7.99928 0.00117 8.00018
1 8.00153 2.00116 0.00180004
1 7.99838 1.99982 1.99864
2 7.9991 1.9982 4.00126
1 8.0018 1.99936 5.99839
1 7.99882 1.99892 7.99856
2 7.99982 4.00027 -0.00207261
1 7.99873 3.99864 1.99812
1 7.99873 4.00181 3.99873
2 8.00036 3.99946 5.99802
2 7.99883 3.99919 7.99964
1 7.99875 5.9982 -0.00153719
2 8.00171 6.00036 1.99865
1 8.00198 6.00188 3.99902
1 7.99927 5.99803 6.00216
1 8.00162 5.99821 7.99991
2 7.99901 7.99946 0.00207261
2 8.00009 8.00027 2.00099
2 8.00108 7.99955 4.00117
1 8.00116 7.99982 5.99965
1 8.00044 8.00116 7.99801
125
Atoms. Timestep: 4
1 -0.000480013 -0.000240023 -0.00133278
2 -0.0006 0.00239539 2.00036
1 0.000492728 0.000840004 4.00108
2 0.00252463 -0.00216462 5.99796
1 -0.00012 0.00108 8.00133
1 -0.00168004 1.99964 -0.0002272
1 -0.00264005 2.00084 1.99723
2 0.000960029 2.00048 4.00288
1 -0.00109281 1.99785 5.99736
2 -0.000959997 1.99736 8.00108
1 -0.00012 4.00264 -0.00096
2 0.00156465 4.00168 1.99892
2 0.000244622 4.00192 4.00168
1 -0.00192 3.99795 5.99988
2 0.00179539 3.99712 8.0012
1 0.00154727 6.00132 -0.00108005
1 0.00145276 6.00168 2.0018
1 0.000827214 6.00084 4.00203
2 0.00228 6.00024 6.00276
1 -0.000360018 6.00252 8.00001
1 0.000372773 8.0018 0.00107999
2 -0.00168001 8.00012 1.99976
2 -0.00276465 8 3.99712
2 0.00096 7.997 5.99844
2 0.000844641 7.99712 7.99988
1 2.00012 -0.00263998 0.00301278
1 1.99796 0.00253278 2.00084
1 2.00287 0.00286725 3.99819
2 2.00228 0.00288465 6.00276
2 1.99916 0.000115368 8.00024
1 1.99795 1.99747 0.000719954
1 2.00083 2.00095 2.00239
2 1.99748 1.99952 3.99988
2 1.9976 1.99736 6.00276
1 1.99749 2.00301 8.00253
2 2.0024 4.00288 -0.00107539
2 1.99712 3.99724 2.00192
2 2.00144 3.99976 4.00288
2 2.00156 3.99952 6.003
1 2.0018 3.9988 8.0012
2 1.99856 6.00288 -0.000600003
1 2.00168 5.99772 2.0006
2 2.00144 5.997 4.00192
1 2.00157 6.00169 6.00013
1 1.99868 6.00227 8.00083
1 1.99963 7.99749 0.00252
2 1.9982 7.99832 1.99916
1 1.99965 8.00181 3.99845
1 1.99845 8.00299 6.00239
2 1.99808 8.00132 8.00192
1 4.00215 0.00071999 0.00142723
2 4.00156 0.00108002 2.00288
2 3.9982 0.00228465 4.00024
1 3.99868 -0.00108008 6.00037
1 4.00253 -0.000947277 8.00252
2 3.99988 1.9988 -0.00107537
2 4.0024 1.99964 1.99736
2 3.99736 1.99868 4.00228
1 4.00181 2.0012 6.00277
1 4.00144 2.00215 8.00227
1 3.99916 4.00156 0.000612748
1 3.99833 4.00205 2.00156
1 3.99917 3.99737 3.99892
1 3.99953 4 6.00203
2 3.99748 4.00204 8.00096
2 4.00216 6.00024 -0.00288
1 4.00132 6.00071 2.00061
1 4.00109 5.99736 3.99796
1 4.00156 6.00072 5.99736
1 3.9976 6.00048 8.00119
2 4.00144 8.00216 -0.00132
2 3.9988 7.99808 1.9994
1 4.00203 7.99783 3.99881
1 3.99796 8.00228 6.00275
2 3.99916 7.99748 7.9976
2 5.99868 -0.00036 0.00168
1 6.00049 -0.00144004 1.99797
1 5.99856 -0.00106729 3.99747
2 6.00096 0.00132 5.99904
1 6.00179 -0.00083998 8.00264
1 6.00061 1.99712 0.00204007
1 5.99773 2.00084 1.99736
1 5.99832 2.00252 4.00132
1 6.00012 1.99821 6.00132
1 6.00192 1.99891 8.00204
2 5.99796 3.99928 -0.00228464
1 5.99976 3.99916 1.99809
1 6.00096 3.99844 4.00228
1 6.00155 4.00168 5.99723
2 5.99904 4.00072 7.99976
2 5.99916 5.99736 -0.000960002
1 6.00011 5.99904 1.99773
1 5.99868 5.99915 4.003
1 6.00192 5.99904 5.99784
1 6.00048 5.99869 7.99879
1 6.003 8.00108 -0.00240006
1 5.99892 7.99988 1.99963
2 6.00024 7.99748 4.0018
1 6.0018 7.99855 6.00133
1 5.99785 7.99796 7.99976
1 7.99989 0.00241277 0.000612796
1 7.99915 0.000972777 1.99819
2 8.00228 -0.00144 3.9976
1 7.99964 -0.00156003 5.99832
2 7.99904 0.00156 8.00024
1 8.00204 2.00155 0.00240011
1 7.99784 1.99976 1.99819
2 7.9988 1.9976 4.00168
1 8.0024 1.99915 5.99785
1 7.99843 1.99856 7.99808
2 7.99976 4.00036 -0.00276464
1 7.99831 3.99819 1.99749
1 7.99831 4.00241 3.99831
2 8.00048 3.99928 5.99736
2 7.99844 3.99892 7.99952
1 7.99833 5.9976 -0.00205279
2 8.00228 6.00048 1.9982
1 8.00264 6.00251 3.99869
1 7.99903 5.99737 6.00288
1 8.00216 5.99761 7.99988
2 7.99868 7.99928 0.00276464
2 8.00012 8.00036 2.00132
2 8.00144 7.9994 4.00156
1 8.00155 7.99976 5.99953
1 8.00059 8.00155 7.99735
125
Atoms. Timestep: 5
1 -0.000600027 -0.000300047 -0.00166998
2 -0.000750001 0.0029928 2.00045
1 0.000619873 0.00105001 4.00135
2 0.00315723 -0.00270721 5.99745
1 -0.00015 0.00135 8.00167
1 -0.00210009 1.99955 -0.000279982
1 -0.0033001 2.00105 1.99653
2 0.00120006 2.00061 4.0036
1 -0.00137004 1.99732 5.9967
2 -0.00119999 1.99671 8.00135
1 -0.000150001 4.0033 -0.0012
2 0.00195728 4.0021 1.99866
2 0.000307221 4.00239 4.00209
1 -0.0024 3.99743 5.99985
2 0.0022428 3.99639 8.0015
1 0.00193013 6.00165 -0.0013501
1 0.00181993 6.0021 2.00225
1 0.00103001 6.00105 4.00253
2 0.00285 6.00031 6.00345
1 -0.000450035 6.00315 8.00002
1 0.000469963 8.00225 0.00134999
2 -0.00210002 8.00016 1.99971
2 -0.00345727 8 3.9964
2 0.0012 7.99625 5.99805
2 0.00105726 7.9964 7.99984
1 2.00015 -0.00329996 0.00376997
1 1.99745 0.00316997 2.00105
1 2.00358 0.00358008 3.99773
2 2.00284 0.00360728 6.00346
2 1.99895 0.00014276 8.00029
1 1.99743 1.99683 0.000899908
1 2.00103 2.00118 2.00298
2 1.99685 1.99941 3.99986
2 1.997 1.9967 6.00344
1 1.99687 2.00377 8.00317
2 2.003 4.00361 -0.0013428
2 1.99639 3.99655 2.0024
2 2.00179 3.9997 4.0036
2 2.00195 3.99939 6.00374
1 2.00225 3.9985 8.0015
2 1.99821 6.00359 -0.000750006
1 2.0021 5.99715 2.00075
2 2.0018 5.99624 4.0024
1 2.00197 6.00212 6.00017
1 1.99835 6.00283 8.00103
1 1.99953 7.99687 0.00315
2 1.99775 7.9979 1.99895
1 1.99957 8.00227 3.99807
1 1.99807 8.00373 6.00298
2 1.9976 8.00166 8.0024
1 4.00268 0.00089998 0.00178003
2 4.00195 0.00135005 2.00361
2 3.99775 0.00285727 4.00029
1 3.99835 -0.00135016 6.00047
1 4.00317 -0.00118014 8.00315
2 3.99985 1.9985 -0.00134276
2 4.003 1.99954 1.9967
2 3.99669 1.99834 4.00284
1 4.00227 2.0015 6.00347
1 4.0018 2.00268 8.00283
1 3.99895 4.00195 0.000769913
1 3.99792 4.00257 2.00195
1 3.99897 3.99672 3.99865
1 3.99942 4 6.00253
2 3.99686 4.00255 8.0012
2 4.0027 6.00031 -0.0036
1 4.00165 6.00088 2.00077
1 4.00137 5.9967 3.99745
1 4.00195 6.0009 5.9967
1 3.997 6.0006 8.00148
2 4.0018 8.00269 -0.00165
2 3.99849 7.99761 1.99924
1 4.00253 7.99728 3.99852
1 3.99745 8.00285 6.00343
2 3.99894 7.99685 7.99701
2 5.99835 -0.000449999 0.0021
1 6.00062 -0.00180009 1.99747
1 5.9982 -0.00133016 3.99683
2 6.0012 0.00165 5.9988
1 6.00223 -0.00104996 8.0033
1 6.00077 1.9964 0.00255013
1 5.99717 2.00105 1.9967
1 5.9979 2.00315 4.00165
1 6.00015 1.99777 6.00165
1 6.0024 1.99863 8.00255
2 5.99746 3.99911 -0.00285725
1 5.9997 3.99895 1.99762
1 6.0012 3.99805 4.00285
1 6.00193 4.0021 5.99653
2 5.9988 4.0009 7.99971
2 5.99894 5.99669 -0.0012
1 6.00013 5.9988 1.99717
1 5.99835 5.99893 4.00375
1 6.0024 5.9988 5.9973
1 6.0006 5.99837 7.99848
1 6.00375 8.00135 -0.00300012
1 5.99865 7.99985 1.99953
2 6.00031 7.99685 4.00225
1 6.00225 7.99818 6.00167
1 5.99732 7.99745 7.9997
1 7.99987 0.00301995 0.000770008
1 7.99893 0.00121997 1.99773
2 8.00285 -0.0018 3.997
1 7.99955 -0.00195006 5.9979
2 7.9988 0.00195 8.0003
1 8.00255 2.00193 0.00300022
1 7.9973 1.9997 1.99773
2 7.99851 1.99699 4.0021
1 8.003 1.99893 5.99732
1 7.99803 1.9982 7.9976
2 7.99969 4.00045 -0.00345725
1 7.99788 3.99773 1.99687
1 7.99788 4.00302 3.99788
2 8.0006 3.9991 5.99671
2 7.99805 3.99865 7.9994
1 7.99792 5.997 -0.00256999
2 8.00285 6.00061 1.99775
1 8.0033 6.00313 3.99837
1 7.99878 5.99672 6.0036
1 8.0027 5.99702 7.99985
2 7.99835 7.9991 0.00345725
2 8.00016 8.00044 2.00165
2 8.0018 7.99926 4.00194
1 8.00193 7.9997 5.99942
1 8.00073 8.00193 7.99668
125
Atoms. Timestep: 6
1 -0.000720047 -0.000360082 -0.00200878
2 -0.000900001 0.00358963 2.00054
1 0.000748596 0.00126002 4.00162
2 0.00379041 -0.00325038 5.99694
1 -0.00018 0.00162 8.00201
1 -0.00252015 1.99946 -0.000331151
1 -0.00396018 2.00126 1.99583
2 0.0014401 2.00073 4.00432
1 -0.00164889 1.99679 5.99604
2 -0.00143999 1.99605 8.00162
1 -0.000180001 4.00396 -0.00144
2 0.00235049 4.00252 1.99839
2 0.000370395 4.00287 4.00251
1 -0.00288 3.99691 5.99982
2 0.00268964 3.99567 8.0018
1 0.00231141 6.00198 -0.00162018
1 0.0021887 6.00252 2.0027
1 0.0012312 6.00126 4.00303
2 0.00342 6.00037 6.00414
1 -0.000540061 6.00378 8.00003
1 0.000568754 8.0027 0.00161998
2 -0.00252003 8.00019 1.99965
2 -0.00415048 8 3.99568
2 0.00144 7.9955 5.99766
2 0.00127046 7.99568 7.99981
1 2.00018 -0.00395993 0.00452876
1 1.99694 0.00380876 2.00126
1 2.00429 0.00429132 3.99727
2 2.00341 0.00433049 6.00415
2 1.99874 0.000169571 8.00035
1 1.99691 1.99619 0.00107984
1 2.00123 2.00141 2.00357
2 1.99622 1.99929 3.99983
2 1.9964 1.99604 6.00413
1 1.99625 2.00453 8.00381
2 2.0036 4.00433 -0.00160965
2 1.99567 3.99586 2.00288
2 2.00215 3.99964 4.00432
2 2.00234 3.99927 6.00449
1 2.0027 3.9982 8.0018
2 1.99785 6.00431 -0.00090001
1 2.00252 5.99658 2.0009
2 2.00216 5.99549 4.00288
1 2.00237 6.00255 6.00021
1 1.99802 6.00339 8.00123
1 1.99943 7.99625 0.00378
2 1.9973 7.99748 1.99874
1 1.99949 8.00273 3.99769
1 1.99769 8.00447 6.00357
2 1.99712 8.00199 8.00288
1 4.00321 0.00107996 0.00213124
2 4.00234 0.00162009 2.00433
2 3.9973 0.00343048 4.00035
1 3.99802 -0.00162027 6.00057
1 4.00381 -0.00141142 8.00378
2 3.99982 1.9982 -0.00160956
2 4.0036 1.99945 1.99604
2 3.99603 1.99801 4.00341
1 4.00273 2.0018 6.00417
1 4.00216 2.00321 8.00339
1 3.99874 4.00234 0.000928666
1 3.99751 4.00309 2.00234
1 3.99877 3.99607 3.99838
1 3.99931 4 6.00303
2 3.99623 4.00306 8.00144
2 4.00324 6.00037 -0.00431999
1 4.00198 6.00105 2.00093
1 4.00165 5.99604 3.99694
1 4.00234 6.00108 5.99604
1 3.9964 6.00072 8.00177
2 4.00216 8.00323 -0.00198
2 3.99819 7.99713 1.99909
1 4.00303 7.99673 3.99823
1 3.99694 8.00342 6.00411
2 3.99873 7.99622 7.99641
2 5.99802 -0.000539998 0.00252
1 6.00075 -0.00216015 1.99697
1 5.99784 -0.00159146 3.99619
2 6.00144 0.00198001 5.99856
1 6.00267 -0.00125993 8.00396
1 6.00093 1.99568 0.00306023
1 5.99661 2.00126 1.99604
1 5.99748 2.00378 4.00198
1 6.00018 1.99733 6.00198
1 6.00288 1.99835 8.00306
2 5.99695 3.99893 -0.00343044
1 5.99964 3.99874 1.99715
1 6.00144 3.99766 4.00342
1 6.00231 4.00252 5.99583
2 5.99856 4.00108 7.99965
2 5.99873 5.99603 -0.00144001
1 6.00015 5.99856 1.99661
1 5.99802 5.99871 4.0045
1 6.00288 5.99856 5.99676
1 6.00072 5.99805 7.99817
1 6.0045 8.00162 -0.0036002
1 5.99838 7.99982 1.99943
2 6.00037 7.99622 4.0027
1 6.0027 7.99781 6.00201
1 5.99679 7.99694 7.99964
1 7.99985 0.00362873 0.000928832
1 7.99871 0.00146877 1.99727
2 8.00342 -0.00216 3.9964
1 7.99946 -0.0023401 5.99748
2 7.99856 0.00234 8.00036
1 8.00306 2.00231 0.00360038
1 7.99676 1.99964 1.99727
2 7.99821 1.99639 4.00252
1 8.0036 1.99871 5.99679
1 7.99763 1.99784 7.99712
2 7.99963 4.00054 -0.00415045
1 7.99745 3.99727 1.99625
1 7.99745 4.00363 3.99745
2 8.00072 3.99892 5.99605
2 7.99766 3.99838 7.99928
1 7.99751 5.9964 -0.0030888
2 8.00342 6.00073 1.9973
1 8.00396 6.00375 3.99805
1 7.99853 5.99607 6.00432
1 8.00324 5.99643 7.99982
2 7.99802 7.99892 0.00415044
2 8.00019 8.00053 2.00198
2 8.00216 7.99911 4.00233
1 8.00231 7.99964 5.99931
1 8.00087 8.00231 7.99601
125
Atoms. Timestep: 7
1 -0.000840076 -0.000420131 -0.00234918
2 -0.00105 0.0041859 2.00063
1 0.000878895 0.00147002 4.00189
2 0.00442417 -0.00379412 5.99643
1 -0.00021 0.00189 8.00235
1 -0.00294024 1.99937 -0.0003807
1 -0.00462029 2.00147 1.99513
2 0.00168016 2.00085 4.00504
1 -0.00192936 1.99626 5.99538
2 -0.00167998 1.99539 8.00189
1 -0.000210002 4.00462 -0.00168
2 0.0027443 4.00294 1.99812
2 0.000434145 4.00335 4.00293
1 -0.00336 3.99639 5.99979
2 0.00313592 3.99495 8.0021
1 0.00269112 6.00231 -0.00189029
1 0.00255906 6.00294 2.00315
1 0.00143078 6.00147 4.00353
2 0.00399 6.00043 6.00483
1 -0.000630098 6.00441 8.00004
1 0.000669147 8.00315 0.00188997
2 -0.00294005 8.00022 1.99959
2 -0.00484428 8 3.99496
2 0.00168 7.99475 5.99727
2 0.00148425 7.99496 7.99978
1 2.00021 -0.00461989 0.00528916
1 1.99643 0.00444916 2.00147
1 2.005 0.00500098 3.99681
2 2.00398 0.0050543 6.00484
2 1.99853 0.000195801 8.00041
1 1.99639 1.99555 0.00125974
1 2.00143 2.00164 2.00416
2 1.99559 1.99917 3.9998
2 1.9958 1.99538 6.00482
1 1.99563 2.00529 8.00445
2 2.0042 4.00505 -0.00187592
2 1.99495 3.99517 2.00336
2 2.00251 3.99958 4.00504
2 2.00273 3.99915 6.00524
1 2.00315 3.9979 8.0021
2 1.99749 6.00503 -0.00105002
1 2.00294 5.99601 2.00105
2 2.00252 5.99474 4.00336
1 2.00277 6.00298 6.00025
1 1.99769 6.00395 8.00143
1 1.99933 7.99563 0.00440999
2 1.99685 7.99706 1.99853
1 1.99941 8.00319 3.99731
1 1.99731 8.00521 6.00416
2 1.99664 8.00232 8.00336
1 4.00374 0.00125994 0.00248085
2 4.00273 0.00189014 2.00505
2 3.99685 0.00400428 4.00041
1 3.99769 -0.00189044 6.00067
1 4.00445 -0.00164113 8.00441
2 3.99979 1.9979 -0.00187579
2 4.0042 1.99936 1.99538
2 3.99537 1.99768 4.00398
1 4.00319 2.0021 6.00487
1 4.00252 2.00374 8.00395
1 3.99853 4.00273 0.00108901
1 3.9971 4.00361 2.00273
1 3.99857 3.99542 3.99811
1 3.9992 4 6.00353
2 3.9956 4.00357 8.00168
2 4.00378 6.00043 -0.00503999
1 4.00231 6.00122 2.00109
1 4.00193 5.99538 3.99643
1 4.00273 6.00126 5.99538
1 3.9958 6.00084 8.00206
2 4.00252 8.00377 -0.00230999
2 3.99789 7.99665 1.99894
1 4.00353 7.99618 3.99794
1 3.99643 8.00399 6.00479
2 3.99852 7.99559 7.99581
2 5.99769 -0.000629997 0.00294
1 6.00088 -0.00252025 1.99647
1 5.99748 -0.00185119 3.99555
2 6.00168 0.00231001 5.99832
1 6.00311 -0.00146989 8.00462
1 6.00109 1.99496 0.00357037
1 5.99605 2.00147 1.99538
1 5.99706 2.00441 4.00231
1 6.00021 1.99689 6.00231
1 6.00336 1.99807 8.00357
2 5.99644 3.99875 -0.00400423
1 5.99958 3.99853 1.99668
1 6.00168 3.99727 4.00399
1 6.00269 4.00294 5.99513
2 5.99832 4.00126 7.99959
2 5.99852 5.99537 -0.00168001
1 6.00017 5.99832 1.99605
1 5.99769 5.99849 4.00525
1 6.00336 5.99832 5.99622
1 6.00084 5.99773 7.99786
1 6.00525 8.00189 -0.00420032
1 5.99811 7.99979 1.99933
2 6.00043 7.99559 4.00315
1 6.00315 7.99744 6.00235
1 5.99626 7.99643 7.99958
1 7.99983 0.00423911 0.00108927
1 7.99849 0.00171917 1.99681
2 8.00399 -0.00252 3.9958
1 7.99937 -0.00273016 5.99706
2 7.99832 0.00273 8.00042
1 8.00357 2.00269 0.00420061
1 7.99622 1.99958 1.99681
2 7.99791 1.99579 4.00294
1 8.0042 1.99849 5.99626
1 7.99723 1.99748 7.99664
2 7.99957 4.00063 -0.00484423
1 7.99702 3.99681 1.99563
1 7.99702 4.00424 3.99702
2 8.00084 3.99874 5.99539
2 7.99727 3.99811 7.99916
1 7.9971 5.9958 -0.00360922
2 8.00399 6.00085 1.99685
1 8.00462 6.00437 3.99773
1 7.99828 5.99542 6.00504
1 8.00378 5.99584 7.99979
2 7.99769 7.99874 0.00484422
2 8.00022 8.00062 2.00231
2 8.00252 7.99896 4.00272
1 8.00269 7.99958 5.9992
1 8.00101 8.00269 7.99534
125
Atoms. Timestep: 8
1 -0.000960114 -0.000480197 -0.0026912
2 -0.0012 0.0047816 2.00072
1 0.00101076 0.00168004 4.00216
2 0.00505851 -0.00433843 5.99592
1 -0.000240001 0.00216 8.00269
1 -0.00336036 1.99928 -0.000428627
1 -0.00528044 2.00168 1.99443
2 0.00192025 2.00098 4.00576
1 -0.00221147 1.99573 5.99472
2 -0.00191998 1.99474 8.00216
1 -0.000240003 4.00528 -0.00192
2 0.00313871 4.00336 1.99786
2 0.000498471 4.00382 4.00334
1 -0.00384 3.99587 5.99976
2 0.00358162 3.99422 8.0024
1 0.00306925 6.00264 -0.00216044
1 0.00293101 6.00336 2.0036
1 0.00162875 6.00168 4.00403
2 0.00456 6.0005 6.00552
1 -0.000720147 6.00504 8.00005
1 0.000771144 8.0036 0.00215995
2 -0.00336007 8.00026 1.99954
2 -0.00553867 8 3.99424
2 0.00192 7.994 5.99688
2 0.00169863 7.99424 7.99974
1 2.00024 -0.00527984 0.00605116
1 1.99592 0.00509116 2.00168
1 2.00571 0.00570905 3.99635
2 2.00454 0.0057787 6.00554
2 1.99832 0.000221448 8.00046
1 1.99587 1.99491 0.00143962
1 2.00163 2.00187 2.00475
2 1.99496 1.99906 3.99978
2 1.9952 1.99472 6.0055
1 1.99501 2.00605 8.00509
2 2.0048 4.00578 -0.00214163
2 1.99422 3.99448 2.00384
2 2.00286 3.99952 4.00576
2 2.00312 3.99902 6.00598
1 2.0036 3.9976 8.0024
2 1.99714 6.00574 -0.00120002
1 2.00336 5.99544 2.0012
2 2.00288 5.99398 4.00384
1 2.00317 6.00341 6.00029
1 1.99736 6.00451 8.00163
1 1.99923 7.99501 0.00503999
2 1.9964 7.99664 1.99832
1 1.99933 8.00365 3.99693
1 1.99693 8.00595 6.00475
2 1.99616 8.00266 8.00384
1 4.00427 0.00143992 0.00282885
2 4.00312 0.00216021 2.00578
2 3.9964 0.00457867 4.00046
1 3.99736 -0.00216065 6.00077
1 4.00509 -0.00186928 8.00504
2 3.99976 1.9976 -0.00214143
2 4.0048 1.99926 1.99472
2 3.9947 1.99734 4.00454
1 4.00365 2.0024 6.00557
1 4.00288 2.00427 8.00451
1 3.99832 4.00312 0.00125093
1 3.99669 4.00413 2.00312
1 3.99837 3.99477 3.99784
1 3.99909 4 6.00403
2 3.99498 4.00408 8.00192
2 4.00432 6.0005 -0.00575998
1 4.00264 6.00139 2.00125
1 4.00221 5.99472 3.99592
1 4.00312 6.00144 5.99472
1 3.9952 6.00096 8.00235
2 4.00288 8.0043 -0.00263999
2 3.99758 7.99618 1.99878
1 4.00403 7.99563 3.99765
1 3.99592 8.00456 6.00547
2 3.9983 7.99496 7.99522
2 5.99736 -0.000719996 0.00336001
1 6.00101 -0.00288037 1.99597
1 5.99712 -0.00210937 3.99491
2 6.00192 0.00264001 5.99808
1 6.00355 -0.00167983 8.00528
1 6.00125 1.99424 0.00408055
1 5.99549 2.00168 1.99472
1 5.99664 2.00504 4.00264
1 6.00024 1.99645 6.00264
1 6.00384 1.99779 8.00408
2 5.99594 3.99858 -0.00457859
1 5.99952 3.99832 1.99621
1 6.00192 3.99688 4.00456
1 6.00307 4.00336 5.99443
2 5.99808 4.00144 7.99954
2 5.9983 5.9947 -0.00192002
1 6.00019 5.99808 1.99549
1 5.99736 5.99827 4.006
1 6.00384 5.99808 5.99568
1 6.00096 5.99741 7.99755
1 6.006 8.00216 -0.00480048
1 5.99784 7.99976 1.99923
2 6.0005 7.99496 4.0036
1 6.0036 7.99707 6.00269
1 5.99573 7.99592 7.99952
1 7.99981 0.00485109 0.00125133
1 7.99827 0.00197117 1.99635
2 8.00456 -0.00287999 3.9952
1 7.99928 -0.00312023 5.99664
2 7.99808 0.00312001 8.00048
1 8.00408 2.00307 0.00480091
1 7.99568 1.99952 1.99635
2 7.99762 1.99518 4.00336
1 8.0048 1.99827 5.99573
1 7.99683 1.99712 7.99616
2 7.9995 4.00072 -0.0055386
1 7.99659 3.99635 1.99501
1 7.99659 4.00485 3.99659
2 8.00096 3.99856 5.99474
2 7.99688 3.99784 7.99904
1 7.99669 5.9952 -0.00413126
2 8.00456 6.00098 1.9964
1 8.00528 6.00499 3.99741
1 7.99803 5.99477 6.00576
1 8.00432 5.99525 7.99976
2 7.99736 7.99856 0.00553858
2 8.00026 8.0007 2.00264
2 8.00288 7.99882 4.0031
1 8.00307 7.99952 5.99909
1 8.00115 8.00307 7.99467
125
Atoms. Timestep: 9
1 -0.00108016 -0.000540281 -0.00303482
2 -0.00135 0.00537673 2.00081
1 0.0011442 0.00189005 4.00243
2 0.00569343 -0.00488332 5.99541
1 -0.000270001 0.00243 8.00304
1 -0.00378052 1.99919 -0.000474927
1 -0.00594063 2.00189 1.99373
2 0.00216035 2.0011 4.00648
1 -0.00249521 1.9952 5.99406
2 -0.00215997 1.99408 8.00243
1 -0.000270004 4.00594 -0.00215999
2 0.00353371 4.00378 1.99759
2 0.000563371 4.0043 4.00376
1 -0.00432 3.99535 5.99973
2 0.00402676 3.9935 8.0027
1 0.00344582 6.00297 -0.00243063
1 0.00330455 6.00378 2.00405
1 0.0018251 6.00189 4.00453
2 0.00513 6.00056 6.00621
1 -0.000810211 6.00567 8.00006
1 0.000874745 8.00405 0.00242993
2 -0.00378011 8.00029 1.99948
2 -0.00623365 8 3.99352
2 0.00216 7.99325 5.99649
2 0.0019136 7.99352 7.99971
1 2.00027 -0.00593977 0.00681477
1 1.99541 0.00573477 2.00189
1 2.00642 0.00641552 3.99589
2 2.00511 0.0065037 6.00623
2 1.99811 0.000246513 8.00052
1 1.99535 1.99427 0.00161945
1 2.00183 2.0021 2.00534
2 1.99433 1.99894 3.99975
2 1.9946 1.99406 6.00619
1 1.99439 2.00682 8.00573
2 2.0054 4.0065 -0.00240677
2 1.9935 3.99379 2.00432
2 2.00322 3.99946 4.00648
2 2.00351 3.9989 6.00673
1 2.00405 3.9973 8.0027
2 1.99678 6.00646 -0.00135003
1 2.00378 5.99487 2.00135
2 2.00324 5.99323 4.00432
1 2.00357 6.00384 6.00033
1 1.99703 6.00507 8.00183
1 1.99913 7.99439 0.00566999
2 1.99595 7.99622 1.99811