125
Atoms. Timestep: 0
A 0 0 0
B 0 0 2
A 0 0 4
A 0 0 6
B 0 0 8
B 0 2 0
A 0 2 2
B 0 2 4
A 0 2 6
A 0 2 8
B 0 4 0
A 0 4 2
A 0 4 4
A 0 4 6
A 0 4 8
A 0 6 0
A 0 6 2
A 0 6 4
B 0 6 6
A 0 6 8
B 0 8 0
A 0 8 2
B 0 8 4
B 0 8 6
A 0 8 8
A 2 0 0
A 2 0 2
A 2 0 4
A 2 0 6
B 2 0 8
B 2 2 0
B 2 2 2
A 2 2 4
B 2 2 6
A 2 2 8
B 2 4 0
A 2 4 2
A 2 4 4
B 2 4 6
B 2 4 8
B 2 6 0
B 2 6 2
B 2 6 4
B 2 6 6
B 2 6 8
A 2 8 0
B 2 8 2
A 2 8 4
A 2 8 6
B 2 8 8
B 4 0 0
A 4 0 2
B 4 0 4
A 4 0 6
A 4 0 8
A 4 2 0
B 4 2 2
A 4 2 4
A 4 2 6
B 4 2 8
B 4 4 0
A 4 4 2
B 4 4 4
A 4 4 6
B 4 4 8
B 4 6 0
B 4 6 2
A 4 6 4
A 4 6 6
B 4 6 8
A 4 8 0
B 4 8 2
B 4 8 4
A 4 8 6
A 4 8 8
A 6 0 0
B 6 0 2
A 6 0 4
B 6 0 6
A 6 0 8
B 6 2 0
B 6 2 2
B 6 2 4
B 6 2 6
A 6 2 8
B 6 4 0
A 6 4 2
A 6 4 4
A 6 4 6
A 6 4 8
B 6 6 0
B 6 6 2
B 6 6 4
B 6 6 6
B 6 6 8
B 6 8 0
B 6 8 2
B 6 8 4
B 6 8 6
B 6 8 8
A 8 0 0
B 8 0 2
B 8 0 4
A 8 0 6
B 8 0 8
A 8 2 0
A 8 2 2
B 8 2 4
A 8 2 6
A 8 2 8
B 8 4 0
B 8 4 2
B 8 4 4
B 8 4 6
B 8 4 8
B 8 6 0
A 8 6 2
A 8 6 4
A 8 6 6
A 8 6 8
B 8 8 0
A 8 8 2
B 8 8 4
B 8 8 6
A 8 8 8
125
Atoms. Timestep: 1
A 9.99982 9.99968 0.000267191
B 9.99992 0.00048 2.0002
A 9.99952 9.9998 4.00026
A 9.99984 0.000400354 6.00027
B 0.0003 0.00016 8.00028
B 9.99952 1.99964 9.9996
A 9.99986 1.9996 2.0004
B 0.000199871 1.99978 3.9999
A 0.000419646 2.00046 6.00046
A 9.99956 1.99952 7.99964
B 9.99984 3.9997 2e-05
A 9.99962 4.00032 1.99958
A 9.99996 3.99994 4.00018
A 0.00038 4.00048 5.99966
A 9.99956 3.99988 8.0004
A 0.0003 6.00032 9.99994
A 9.99986 5.99952 2.00004
A 9.99984 6.00042 3.99952
B 9.99982 6.00034 5.99958
A 9.99986 5.99998 8.0003
B 0.000119871 7.99996 9.99968
A 9.9999 8.00038 1.99994
B 9.99966 7.9999 3.99954
B 9.99968 7.99962 5.99998
A 9.99964 8.00026 7.9995
A 2.0003 9.99982 0.000380354
A 1.99974 9.99962 1.9997
A 2.0002 0.00034 4.00038
A 2.0001 0.000459646 6.00016
B 2.00046 7.98715e-05 7.9999
B 1.99986 2.00012 9.9998
B 1.9996 2.00042 1.99986
A 1.99996 1.99984 3.99996
B 2.0002 2.00014 6.0001
A 1.9998 1.9996 8.0004
B 1.99978 3.99974 9.99954
A 2.0001 4.00028 1.99976
A 1.99998 4.00028 3.99992
B 1.9999 4.00048 6.0002
B 1.9996 3.9995 8.00036
B 2.00004 5.9996 0.0003
B 1.9998 5.9996 1.99984
B 2.00026 5.99986 3.99996
B 2.00014 6.00008 6
B 2.0003 6.00032 7.9998
A 1.99968 8 9.99956
B 1.99952 7.99974 2.00036
A 1.99978 7.99994 4.00008
A 1.9997 8.0001 5.99988
B 2.00026 7.99972 8.00024
B 3.99998 9.99984 0.00026
A 3.99986 9.99968 2.0001
B 4.00004 0.000139871 3.99952
A 3.99976 9.99974 6.00012
A 3.99954 9.99996 8.0003
A 4.0003 2.00048 9.99976
B 3.99966 1.99956 2.00042
A 3.99954 1.99988 3.99978
A 3.9996 2.00044 6.0005
B 3.99952 1.99988 8.0004
B 3.99962 3.99964 0.000219871
A 4.00032 3.99984 1.9999
B 3.99974 3.99972 4.00032
A 4.0001 3.99996 5.99986
B 4.00016 4.00018 8.00034
B 4.00006 5.9998 0.00036
B 4.00022 6.00012 1.99956
A 3.9996 5.99966 4.00022
A 4.0002 6.00034 5.99974
B 3.99958 5.99996 7.9999
A 3.99966 7.99954 0.000399646
B 4.0004 8.00032 1.99964
B 4.00046 8.00038 3.99982
A 3.99954 7.99966 6.00034
A 3.99952 8.00028 7.99994
A 6.00004 0.0001 0.000379646
B 6.00036 0.00028 2.0002
A 6.0002 0.0002 3.9995
B 6.0001 8e-05 5.99956
A 5.99974 0.000160354 7.9996
B 5.99964 1.99978 0.000160129
B 5.99956 1.99968 2.00038
B 5.9999 1.99982 4.00032
B 6.00004 1.99986 6.0001
A 5.99992 1.99968 8.00044
B 6.00004 4.00008 0.00038
A 6.00046 3.9997 2.0003
A 6.0003 3.99996 4.00004
A 5.99998 4.00002 5.99982
A 6.00042 4.00048 7.99952
B 5.99996 6.00028 9.99968
B 5.99976 5.99952 1.99958
B 5.99976 5.9999 4.00012
B 6.0004 6 5.9998
B 5.99954 6.0005 8.00024
B 6.00044 8.00038 8e-05
B 6.0005 7.99986 1.99952
B 5.99964 7.99984 4.00036
B 5.99982 8.00004 6.00002
B 5.99982 7.9995 7.9999
A 8.00006 0.000480354 9.99986
B 8.0003 0.0003 1.99978
B 7.9995 0.00012 3.99998
A 8.00008 9.99974 5.99998
B 8.00034 9.99968 7.9995
A 7.9996 2.00016 0.0003
A 8.0004 1.99984 2.00026
B 7.99956 2.00014 3.99968
A 7.99972 2 6.00014
A 8.00026 1.99994 8.00028
B 8.00032 4.00032 9.9999
B 8.00026 4.00008 1.99996
B 7.9999 3.99992 3.99972
B 7.99964 3.99984 5.99974
B 8.00036 3.99952 7.99968
B 7.99958 5.99992 0.00046
A 8.00028 6.00048 1.99958
A 7.99966 6.00034 3.99978
A 7.99974 5.99964 6.00004
A 7.99968 6.0004 7.99962
B 8.00022 8.00024 2e-05
A 7.99998 8.00028 2.0004
B 8.00046 8.00022 4.00038
B 8.00048 8.00034 5.99968
A 8 8.00002 8.00022
125
Atoms. Timestep: 2
A 9.99964 9.99936 0.000548764
B 9.99984 0.000959989 2.0004
A 9.99904 9.9996 4.00052
A 9.99968 0.000801415 6.00053
B 0.0006 0.00032 8.00056
B 9.99904 1.99928 9.9992
A 9.99972 1.9992 2.0008
B 0.000399487 1.99956 3.9998
A 0.000838583 2.00092 6.00092
A 9.99912 1.99904 7.99928
B 9.99968 3.9994 4e-05
A 9.99924 4.00064 1.99916
A 9.99992 3.99988 4.00036
A 0.00076 4.00096 5.99932
A 9.99912 3.99976 8.0008
A 0.0006 6.00064 9.99988
A 9.99972 5.99904 2.00008
A 9.99968 6.00084 3.99904
B 9.99964 6.00068 5.99916
A 9.99972 5.99996 8.0006
B 0.000239486 7.99992 9.99936
A 9.9998 8.00076 1.99988
B 9.99932 7.9998 3.99908
B 9.99936 7.99924 5.99996
A 9.99928 8.00052 7.999
A 2.0006 9.99964 0.00076142
A 1.99948 9.99924 1.9994
A 2.0004 0.000680002 4.00076
A 2.0002 0.000918582 6.00032
B 2.00092 0.000159486 7.9998
B 1.99972 2.00024 9.9996
B 1.9992 2.00084 1.99972
A 1.99992 1.99968 3.99992
B 2.0004 2.00028 6.0002
A 1.9996 1.9992 8.0008
B 1.99956 3.99948 9.99908
A 2.0002 4.00056 1.99952
A 1.99996 4.00056 3.99984
B 1.9998 4.00096 6.0004
B 1.9992 3.999 8.00072
B 2.00008 5.9992 0.000600001
B 1.9996 5.9992 1.99968
B 2.00052 5.99972 3.99992
B 2.00028 6.00016 6
B 2.0006 6.00064 7.9996
A 1.99936 8 9.99912
B 1.99904 7.99948 2.00072
A 1.99956 7.99988 4.00016
A 1.9994 8.0002 5.99976
B 2.00052 7.99944 8.00048
B 3.99996 9.99968 0.00052
A 3.99972 9.99936 2.0002
B 4.00008 0.000279486 3.99904
A 3.99952 9.99948 6.00024
A 3.99908 9.99992 8.0006
A 4.0006 2.00096 9.99952
B 3.99932 1.99912 2.00084
A 3.99908 1.99976 3.99956
A 3.9992 2.00088 6.001
B 3.99904 1.99976 8.0008
B 3.99924 3.99928 0.000439761
A 4.00064 3.99968 1.9998
B 3.99948 3.99944 4.00064
A 4.0002 3.99992 5.99972
B 4.00032 4.00036 8.00068
B 4.00012 5.9996 0.000720001
B 4.00044 6.00024 1.99912
A 3.9992 5.99932 4.00044
A 4.0004 6.00068 5.99948
B 3.99916 5.99992 7.9998
A 3.99932 7.99908 0.000798583
B 4.0008 8.00064 1.99928
B 4.00092 8.00076 3.99964
A 3.99908 7.99932 6.00068
A 3.99904 8.00056 7.99988
A 6.00008 0.0002 0.000759308
B 6.00072 0.000560001 2.0004
A 6.0004 0.0004 3.999
B 6.0002 0.00016 5.99912
A 5.99948 0.000321419 7.9992
B 5.99928 1.99956 0.000320531
B 5.99912 1.99936 2.00076
B 5.9998 1.99964 4.00064
B 6.00008 1.99972 6.0002
A 5.99984 1.99936 8.00088
B 6.00008 4.00016 0.000760017
A 6.00092 3.9994 2.0006
A 6.0006 3.99992 4.00008
A 5.99996 4.00004 5.99964
A 6.00084 4.00096 7.99904
B 5.99992 6.00056 9.99936
B 5.99952 5.99904 1.99916
B 5.99952 5.9998 4.00024
B 6.0008 6 5.9996
B 5.99908 6.001 8.00048
B 6.00088 8.00076 0.000160275
B 6.001 7.99972 1.99904
B 5.99928 7.99968 4.00072
B 5.99964 8.00008 6.00004
B 5.99964 7.999 7.9998
A 8.00012 0.000961419 9.99972
B 8.0006 0.0006 1.99956
B 7.999 0.00024 3.99996
A 8.00016 9.99948 5.99996
B 8.00068 9.99936 7.999
A 7.9992 2.00032 0.000600001
A 8.0008 1.99968 2.00052
B 7.99912 2.00028 3.99936
A 7.99944 2 6.00028
A 8.00052 1.99988 8.00056
B 8.00064 4.00064 9.9998
B 8.00052 4.00016 1.99992
B 7.9998 3.99984 3.99944
B 7.99928 3.99968 5.99948
B 8.00072 3.99904 7.99936
B 7.99916 5.99984 0.000920017
A 8.00056 6.00096 1.99916
A 7.99932 6.00068 3.99956
A 7.99948 5.99928 6.00008
A 7.99936 6.0008 7.99924
B 8.00044 8.00048 4e-05
A 7.99996 8.00056 2.0008
B 8.00092 8.00044 4.00076
B 8.00096 8.00068 5.99936
A 8 8.00004 8.00044
125
Atoms. Timestep: 3
A 9.99946 9.99904 0.000844715
B 9.99976 0.00143996 2.0006
A 9.99856 9.9994 4.00078
A 9.99952 0.00120318 6.00078
B 0.000899999 0.00048 8.00084
B 9.99856 1.99892 9.9988
A 9.99958 1.9988 2.0012
B 0.000598846 1.99934 3.9997
A 0.00125681 2.00138 6.00138
A 9.99868 1.99856 7.99892
B 9.99952 3.9991 6.00001e-05
A 9.99886 4.00096 1.99874
A 9.99988 3.99982 4.00054
A 0.00114 4.00144 5.99898
A 9.99868 3.99964 8.0012
A 0.000899999 6.00096 9.99982
A 9.99958 5.99856 2.00012
A 9.99952 6.00126 3.99856
B 9.99946 6.00102 5.99874
A 9.99958 5.99994 8.0009
B 0.000358844 7.99988 9.99904
A 9.9997 8.00114 1.99982
B 9.99898 7.9997 3.99862
B 9.99904 7.99886 5.99994
A 9.99892 8.00078 7.9985
A 2.0009 9.99946 0.0011432
A 1.99922 9.99886 1.9991
A 2.0006 0.00102001 4.00114
A 2.0003 0.00137681 6.00048
B 2.00138 0.000238845 7.9997
B 1.99958 2.00036 9.9994
B 1.9988 2.00126 1.99958
A 1.99988 1.99952 3.99988
B 2.0006 2.00042 6.0003
A 1.9994 1.9988 8.0012
B 1.99934 3.99922 9.99862
A 2.0003 4.00084 1.99928
A 1.99994 4.00084 3.99976
B 1.9997 4.00144 6.0006
B 1.9988 3.9985 8.00108
B 2.00012 5.9988 0.000900003
B 1.9994 5.9988 1.99952
B 2.00078 5.99958 3.99988
B 2.00042 6.00024 6
B 2.0009 6.00096 7.9994
A 1.99904 8 9.99868
B 1.99856 7.99922 2.00108
A 1.99934 7.99982 4.00024
A 1.9991 8.0003 5.99964
B 2.00078 7.99916 8.00072
B 3.99994 9.99952 0.00078
A 3.99958 9.99904 2.0003
B 4.00012 0.000418843 3.99856
A 3.99928 9.99922 6.00036
A 3.99862 9.99988 8.0009
A 4.0009 2.00144 9.99928
B 3.99898 1.99868 2.00126
A 3.99862 1.99964 3.99934
A 3.9988 2.00132 6.0015
B 3.99856 1.99964 8.0012
B 3.99886 3.99892 0.000659667
A 4.00096 3.99952 1.9997
B 3.99922 3.99916 4.00096
A 4.0003 3.99988 5.99958
B 4.00048 4.00054 8.00102
B 4.00018 5.9994 0.00108
B 4.00066 6.00036 1.99868
A 3.9988 5.99898 4.00066
A 4.0006 6.00102 5.99922
B 3.99874 5.99988 7.9997
A 3.99898 7.99862 0.00119681
B 4.0012 8.00096 1.99892
B 4.00138 8.00114 3.99946
A 3.99862 7.99898 6.00102
A 3.99856 8.00084 7.99982
A 6.00012 0.0003 0.00113899
B 6.00108 0.000840004 2.0006
A 6.0006 0.0006 3.9985
B 6.0003 0.000240001 5.99868
A 5.99922 0.000483195 7.9988
B 5.99892 1.99934 0.000481209
B 5.99868 1.99904 2.00114
B 5.9997 1.99946 4.00096
B 6.00012 1.99958 6.0003
A 5.99976 1.99904 8.00132
B 6.00012 4.00024 0.00114005
A 6.00138 3.9991 2.0009
A 6.0009 3.99988 4.00012
A 5.99994 4.00006 5.99946
A 6.00126 4.00144 7.99856
B 5.99988 6.00084 9.99904
B 5.99928 5.99856 1.99874
B 5.99928 5.9997 4.00036
B 6.0012 6 5.9994
B 5.99862 6.0015 8.00072
B 6.00132 8.00114 0.000240826
B 6.0015 7.99958 1.99856
B 5.99892 7.99952 4.00108
B 5.99946 8.00012 6.00006
B 5.99946 7.9985 7.9997
A 8.00018 0.00144319 9.99958
B 8.0009 0.0009 1.99934
B 7.9985 0.00036 3.99994
A 8.00024 9.99922 5.99994
B 8.00102 9.99904 7.9985
A 7.9988 2.00048 0.000900003
A 8.0012 1.99952 2.00078
B 7.99868 2.00042 3.99904
A 7.99916 2 6.00042
A 8.00078 1.99982 8.00084
B 8.00096 4.00096 9.9997
B 8.00078 4.00024 1.99988
B 7.9997 3.99976 3.99916
B 7.99892 3.99952 5.99922
B 8.00108 3.99856 7.99904
B 7.99874 5.99976 0.00138005
A 8.00084 6.00144 1.99874
A 7.99898 6.00102 3.99934
A 7.99922 5.99892 6.00012
A 7.99904 6.0012 7.99886
B 8.00066 8.00072 6.00002e-05
A 7.99994 8.00084 2.0012
B 8.00138 8.00066 4.00114
B 8.00144 8.00102 5.99904
A 8 8.00006 8.00066
125
Atoms. Timestep: 4
A 9.99928 9.99872 0.00115505
B 9.99968 0.00191989 2.0008
A 9.99809 9.9992 4.00104
A 9.99936 0.00160564 6.001
B 0.0012 0.00064 8.00112
B 9.99808 1.99856 9.9984
A 9.99943 1.99841 2.0016
B 0.00079795 1.99912 3.9996
A 0.00167434 2.00184 6.00185
A 9.99824 1.99809 7.99855
B 9.99936 3.9988 8.00002e-05
A 9.99849 4.00128 1.99833
A 9.99985 3.99977 4.00072
A 0.00152 4.00191 5.99864
A 9.99824 3.99952 8.00159
A 0.0012 6.00128 9.99976
A 9.99943 5.99808 2.00016
A 9.99935 6.00167 3.99807
B 9.99928 6.00136 5.99832
A 9.99943 5.99992 8.00121
B 0.000477945 7.99984 9.99872
A 9.99959 8.00151 1.99976
B 9.99864 7.9996 3.99816
B 9.99872 7.99848 5.99992
A 9.99855 8.00103 7.998
A 2.00119 9.99927 0.00152569
A 1.99897 9.99848 1.9988
A 2.00079 0.00136002 4.00152
A 2.0004 0.00183433 6.00063
B 2.00184 0.000317948 7.9996
B 1.99944 2.00048 9.9992
B 1.9984 2.00168 1.99944
A 1.99985 1.99936 3.99984
B 2.0008 2.00056 6.0004
A 1.99919 1.9984 8.0016
B 1.99912 3.99896 9.99816
A 2.0004 4.00112 1.99905
A 1.99991 4.00111 3.99967
B 1.9996 4.00192 6.0008
B 1.9984 3.998 8.00144
B 2.00016 5.9984 0.00120001
B 1.9992 5.9984 1.99936
B 2.00104 5.99944 3.99984
B 2.00056 6.00032 6
B 2.0012 6.00128 7.9992
A 1.99873 8.00001 9.99824
B 1.99808 7.99896 2.00144
A 1.99912 7.99977 4.00033
A 1.99881 8.00041 5.99951
B 2.00104 7.99888 8.00096
B 3.99992 9.99936 0.00104
A 3.99943 9.99872 2.0004
B 4.00016 0.000557942 3.99808
A 3.99903 9.99896 6.00049
A 3.99817 9.99983 8.00119
A 4.0012 2.00192 9.99904
B 3.99864 1.99824 2.00168
A 3.99815 1.99952 3.99913
A 3.9984 2.00176 6.00199
B 3.99808 1.99952 8.0016
B 3.99848 3.99856 0.000879592
A 4.00128 3.99936 1.9996
B 3.99896 3.99888 4.00128
A 4.00041 3.99984 5.99944
B 4.00064 4.00072 8.00136
B 4.00024 5.9992 0.00144001
B 4.00088 6.00048 1.99824
A 3.9984 5.99864 4.00089
A 4.0008 6.00136 5.99895
B 3.99832 5.99984 7.9996
A 3.99863 7.99816 0.00159434
B 4.0016 8.00128 1.99856
B 4.00184 8.00152 3.99928
A 3.99815 7.99864 6.00137
A 3.99808 8.00113 7.99976
A 6.00017 0.0004 0.00151869
B 6.00144 0.00112001 2.0008
A 6.0008 0.0008 3.998
B 6.0004 0.000320002 5.99824
A 5.99895 0.000645683 7.99841
B 5.99856 1.99912 0.00064216
B 5.99824 1.99872 2.00152
B 5.9996 1.99928 4.00128
B 6.00016 1.99944 6.0004
A 5.99969 1.99872 8.00176
B 6.00016 4.00032 0.0015201
A 6.00183 3.9988 2.00121
A 6.0012 3.99984 4.00016
A 5.99991 4.00008 5.99928
A 6.00168 4.00191 7.99807
B 5.99984 6.00112 9.99872
B 5.99904 5.99808 1.99832
B 5.99904 5.9996 4.00048
B 6.0016 6 5.9992
B 5.99816 6.002 8.00096
B 6.00176 8.00152 0.000321653
B 6.002 7.99944 1.99808
B 5.99856 7.99936 4.00144
B 5.99928 8.00016 6.00008
B 5.99928 7.998 7.9996
A 8.00024 0.00192568 9.99944
B 8.0012 0.0012 1.99912
B 7.998 0.000479999 3.99992
A 8.00033 9.99897 5.99992
B 8.00136 9.99872 7.998
A 7.9984 2.00063 0.00120001
A 8.00161 1.99936 2.00103
B 7.99824 2.00056 3.99872
A 7.99889 1.99999 6.00057
A 8.00104 1.99976 8.00112
B 8.00128 4.00128 9.9996
B 8.00104 4.00032 1.99984
B 7.9996 3.99968 3.99888
B 7.99856 3.99936 5.99896
B 8.00144 3.99808 7.99872
B 7.99832 5.99968 0.0018401
A 8.00113 6.00193 1.99833
A 7.99865 6.00136 3.99912
A 7.99896 5.99856 6.00016
A 7.99873 6.00161 7.99847
B 8.00088 8.00096 8.00004e-05
A 7.99993 8.00111 2.0016
B 8.00184 8.00088 4.00152
B 8.00192 8.00136 5.99872
A 8.00001 8.00007 8.00088
125
Atoms. Timestep: 5
A 9.9991 9.9984 0.00147975
B 9.9996 0.00239979 2.001
A 9.99761 9.999 4.0013
A 9.9992 0.0020088 6.00122
B 0.0015 0.000799999 8.0014
B 9.9976 1.9982 9.998
A 9.99929 1.99801 2.002
B 0.000996799 1.9989 3.9995
A 0.00209116 2.0023 6.00231
A 9.9978 1.99761 7.99819
B 9.9992 3.9985 0.0001
A 9.99811 4.0016 1.99791
A 9.99981 3.99971 4.0009
A 0.00189999 4.00239 5.9983
A 9.9978 3.9994 8.00199
A 0.0015 6.0016 9.9997
A 9.99929 5.9976 2.0002
A 9.99919 6.00209 3.99759
B 9.9991 6.0017 5.9979
A 9.99929 5.9999 8.00151
B 0.00059679 7.9998 9.9984
A 9.99949 8.00189 1.9997
B 9.9983 7.9995 3.9977
B 9.9984 7.9981 5.9999
A 9.99819 8.00129 7.9975
A 2.00149 9.99909 0.00190889
A 1.99871 9.9981 1.9985
A 2.00099 0.00170003 4.0019
A 2.0005 0.00229115 6.00079
B 2.0023 0.000396795 7.9995
B 1.9993 2.0006 9.999
B 1.998 2.0021 1.9993
A 1.99981 1.9992 3.9998
B 2.001 2.0007 6.0005
A 1.99899 1.998 8.002
B 1.9989 3.9987 9.9977
A 2.0005 4.0014 1.99881
A 1.99989 4.00139 3.99959
B 1.9995 4.0024 6.001
B 1.998 3.9975 8.0018
B 2.0002 5.998 0.00150002
B 1.999 5.998 1.9992
B 2.0013 5.9993 3.9998
B 2.0007 6.0004 6
B 2.0015 6.0016 7.999
A 1.99841 8.00001 9.9978
B 1.9976 7.9987 2.0018
A 1.9989 7.99971 4.00041
A 1.99851 8.00051 5.99939
B 2.0013 7.9986 8.0012
B 3.9999 9.9992 0.0013
A 3.99929 9.9984 2.0005
B 4.0002 0.000696783 3.9976
A 3.99879 9.9987 6.00061
A 3.99771 9.99979 8.00149
A 4.0015 2.0024 9.9988
B 3.9983 1.9978 2.0021
A 3.99769 1.9994 3.99891
A 3.998 2.0022 6.00249
B 3.9976 1.9994 8.002
B 3.9981 3.9982 0.00109953
A 4.0016 3.9992 1.9995
B 3.9987 3.9986 4.0016
A 4.00051 3.9998 5.9993
B 4.0008 4.0009 8.0017
B 4.0003 5.999 0.00180002
B 4.0011 6.0006 1.9978
A 3.998 5.9983 4.00111
A 4.001 6.0017 5.99869
B 3.9979 5.9998 7.9995
A 3.99829 7.9977 0.00199116
B 4.002 8.0016 1.9982
B 4.0023 8.0019 3.9991
A 3.99769 7.9983 6.00171
A 3.9976 8.00141 7.9997
A 6.00021 0.000499999 0.0018984
B 6.0018 0.00140002 2.001
A 6.001 0.001 3.9975
B 6.0005 0.000400005 5.9978
A 5.99869 0.000808884 7.99801
B 5.9982 1.9989 0.000803385
B 5.9978 1.9984 2.0019
B 5.9995 1.9991 4.0016
B 6.0002 1.9993 6.0005
A 5.99961 1.9984 8.0022
B 6.0002 4.0004 0.00190017
A 6.00229 3.9985 2.00151
A 6.0015 3.9998 4.0002
A 5.99989 4.0001 5.9991
A 6.0021 4.00239 7.99759
B 5.9998 6.0014 9.9984
B 5.9988 5.9976 1.9979
B 5.9988 5.9995 4.0006
B 6.002 6 5.999
B 5.9977 6.0025 8.0012
B 6.0022 8.0019 0.000402757
B 6.0025 7.9993 1.9976
B 5.9982 7.9992 4.0018
B 5.9991 8.0002 6.0001
B 5.9991 7.9975 7.9995
A 8.0003 0.00240888 9.9993
B 8.0015 0.0015 1.9989
B 7.9975 0.000599998 3.9999
A 8.00041 9.99871 5.9999
B 8.0017 9.9984 7.9975
A 7.998 2.00079 0.00150001
A 8.00201 1.9992 2.00129
B 7.9978 2.0007 3.9984
A 7.99861 1.99999 6.00071
A 8.0013 1.9997 8.0014
B 8.0016 4.0016 9.9995
B 8.0013 4.0004 1.9998
B 7.9995 3.9996 3.9986
B 7.9982 3.9992 5.9987
B 8.0018 3.9976 7.9984
B 7.9979 5.9996 0.00230017
A 8.00141 6.00241 1.99791
A 7.99831 6.0017 3.9989
A 7.9987 5.9982 6.0002
A 7.99841 6.00201 7.99809
B 8.0011 8.0012 0.000100001
A 7.99991 8.00139 2.002
B 8.0023 8.0011 4.0019
B 8.0024 8.0017 5.9984
A 8.00001 8.00009 8.0011
125
Atoms. Timestep: 6
A 9.99892 9.99808 0.00181883
B 9.99952 0.00287963 2.0012
A 9.99713 9.9988 4.00156
A 9.99904 0.00241265 6.00142
B 0.00179999 0.000959998 8.00168
B 9.99712 1.99784 9.9976
A 9.99915 1.99761 2.0024
B 0.00119539 1.99868 3.9994
A 0.00250728 2.00276 6.00277
A 9.99736 1.99713 7.99783
B 9.99904 3.9982 0.000120001
A 9.99773 4.00192 1.99749
A 9.99977 3.99965 4.00108
A 0.00227999 4.00287 5.99796
A 9.99736 3.99928 8.00239
A 0.00179999 6.00192 9.99964
A 9.99915 5.99712 2.00024
A 9.99903 6.00251 3.99711
B 9.99892 6.00204 5.99748
A 9.99915 5.99988 8.00181
B 0.000715378 7.99976 9.99808
A 9.99939 8.00227 1.99964
B 9.99796 7.9994 3.99724
B 9.99808 7.99772 5.99988
A 9.99783 8.00155 7.997
A 2.00179 9.99891 0.00229282
A 1.99845 9.99772 1.9982
A 2.00119 0.00204006 4.00228
A 2.0006 0.00274725 6.00095
B 2.00276 0.000475387 7.9994
B 1.99916 2.00072 9.9988
B 1.9976 2.00252 1.99916
A 1.99977 1.99904 3.99976
B 2.0012 2.00084 6.0006
A 1.99879 1.9976 8.0024
B 1.99868 3.99844 9.99724
A 2.0006 4.00168 1.99857
A 1.99987 4.00167 3.99951
B 1.9994 4.00288 6.0012
B 1.9976 3.997 8.00216
B 2.00024 5.9976 0.00180003
B 1.9988 5.9976 1.99904
B 2.00156 5.99916 3.99976
B 2.00084 6.00048 6
B 2.0018 6.00192 7.9988
A 1.99809 8.00001 9.99736
B 1.99712 7.99844 2.00216
A 1.99868 7.99965 4.00049
A 1.99821 8.00061 5.99927
B 2.00156 7.99832 8.00144
B 3.99988 9.99904 0.00156
A 3.99915 9.99808 2.0006
B 4.00024 0.000835366 3.99712
A 3.99855 9.99844 6.00073
A 3.99725 9.99975 8.00179
A 4.0018 2.00288 9.99856
B 3.99796 1.99736 2.00252
A 3.99723 1.99928 3.99869
A 3.9976 2.00264 6.00299
B 3.99712 1.99928 8.0024
B 3.99772 3.99784 0.00131949
A 4.00192 3.99904 1.9994
B 3.99844 3.99832 4.00192
A 4.00061 3.99976 5.99916
B 4.00096 4.00108 8.00204
B 4.00036 5.9988 0.00216004
B 4.00132 6.00072 1.99736
A 3.9976 5.99796 4.00133
A 4.0012 6.00204 5.99843
B 3.99748 5.99976 7.9994
A 3.99795 7.99724 0.00238727
B 4.0024 8.00192 1.99784
B 4.00276 8.00228 3.99892
A 3.99723 7.99796 6.00205
A 3.99712 8.00169 7.99964
A 6.00025 0.000599999 0.00227813
B 6.00216 0.00168003 2.0012
A 6.0012 0.0012 3.997
B 6.0006 0.000480008 5.99736
A 5.99843 0.0009728 7.99761
B 5.99784 1.99868 0.000964884
B 5.99736 1.99808 2.00228
B 5.9994 1.99892 4.00192
B 6.00024 1.99916 6.0006
A 5.99953 1.99808 8.00264
B 6.00024 4.00048 0.00228026
A 6.00275 3.9982 2.00181
A 6.0018 3.99976 4.00024
A 5.99987 4.00012 5.99892
A 6.00252 4.00287 7.99711
B 5.99976 6.00168 9.99808
B 5.99856 5.99712 1.99748
B 5.99856 5.9994 4.00072
B 6.0024 6 5.9988
B 5.99724 6.003 8.00144
B 6.00264 8.00228 0.000484138
B 6.003 7.99916 1.99712
B 5.99784 7.99904 4.00216
B 5.99892 8.00024 6.00012
B 5.99892 7.997 7.9994
A 8.00036 0.00289279 9.99916
B 8.0018 0.0018 1.99868
B 7.997 0.000719997 3.99988
A 8.00049 9.99845 5.99988
B 8.00204 9.99808 7.997
A 7.9976 2.00095 0.00180003
A 8.00241 1.99904 2.00155
B 7.99736 2.00084 3.99808
A 7.99833 1.99999 6.00085
A 8.00156 1.99964 8.00168
B 8.00192 4.00192 9.9994
B 8.00156 4.00048 1.99976
B 7.9994 3.99952 3.99832
B 7.99784 3.99904 5.99844
B 8.00216 3.99712 7.99808
B 7.99748 5.99952 0.00276026
A 8.00169 6.00289 1.99749
A 7.99797 6.00204 3.99868
A 7.99844 5.99784 6.00024
A 7.99809 6.00241 7.99771
B 8.00132 8.00144 0.000120002
A 7.99989 8.00167 2.0024
B 8.00276 8.00132 4.00228
B 8.00288 8.00204 5.99808
A 8.00001 8.00011 8.00132
125
Atoms. Timestep: 7
A 9.99874 9.99776 0.00217228
B 9.99943 0.0033594 2.0014
A 9.99666 9.9986 4.00182
A 9.99888 0.00281719 6.00161
B 0.00209999 0.00112 8.00196
B 9.99665 1.99749 9.9972
A 9.999 1.99722 2.0028
B 0.00139374 1.99846 3.9993
A 0.0029227 2.00322 6.00324
A 9.99692 1.99666 7.99746
B 9.99888 3.99789 0.000140001
A 9.99736 4.00224 1.99708
A 9.99974 3.9996 4.00126
A 0.00265998 4.00334 5.99762
A 9.99692 3.99916 8.00278
A 0.00209999 6.00224 9.99958
A 9.999 5.99664 2.00028
A 9.99886 6.00292 3.99662
B 9.99875 6.00239 5.99706
A 9.999 5.99986 8.00212
B 0.00083371 7.99972 9.99776
A 9.99928 8.00264 1.99958
B 9.99761 7.9993 3.99679
B 9.99775 7.99733 5.99985
A 9.99746 8.0018 7.9965
A 2.00208 9.99872 0.00267746
A 1.9982 9.99734 1.9979
A 2.00138 0.00238009 4.00266
A 2.0007 0.00320265 6.0011
B 2.00321 0.000553724 7.9993
B 1.99901 2.00085 9.99861
B 1.99721 2.00294 1.99901
A 1.99974 1.99888 3.99972
B 2.0014 2.00099 6.0007
A 1.99858 1.9972 8.0028
B 1.99846 3.99818 9.99677
A 2.0007 4.00196 1.99834
A 1.99984 4.00194 3.99942
B 1.9993 4.00336 6.00141
B 1.99721 3.99651 8.00252
B 2.00029 5.99719 0.00210004
B 1.99861 5.99721 1.99888
B 2.00182 5.99902 3.99972
B 2.00097 6.00055 6
B 2.00211 6.00224 7.9986
A 1.99778 8.00002 9.99692
B 1.99665 7.99817 2.00252
A 1.99846 7.9996 4.00058
A 1.99792 8.00072 5.99914
B 2.00182 7.99804 8.00168
B 3.99986 9.99888 0.00182
A 3.999 9.99776 2.0007
B 4.00028 0.000973691 3.99664
A 3.9983 9.99818 6.00086
A 3.9968 9.9997 8.00208
A 4.0021 2.00336 9.99832
B 3.99762 1.99692 2.00294
A 3.99676 1.99916 3.99848
A 3.9972 2.00308 6.00348
B 3.99664 1.99917 8.0028
B 3.99734 3.99749 0.00153947
A 4.00224 3.99888 1.9993
B 3.99818 3.99804 4.00224
A 4.00072 3.99972 5.99902
B 4.00111 4.00126 8.00239
B 4.00041 5.99859 0.00252006
B 4.00154 6.00085 1.99691
A 3.9972 5.99762 4.00156
A 4.0014 6.00238 5.99816
B 3.99706 5.99971 7.99931
A 3.9976 7.99678 0.00278268
B 4.0028 8.00223 1.99749
B 4.00323 8.00267 3.99873
A 3.99676 7.99762 6.0024
A 3.99664 8.00198 7.99958
A 6.0003 0.000699998 0.00265788
B 6.00253 0.00196005 2.0014
A 6.0014 0.0014 3.9965
B 6.0007 0.000560014 5.99692
A 5.99816 0.00113743 7.99722
B 5.99748 1.99847 0.00112666
B 5.99691 1.99775 2.00266
B 5.99931 1.99874 4.00224
B 6.00028 1.99901 6.00069
A 5.99946 1.99776 8.00308
B 6.00028 4.00055 0.00266036
A 6.0032 3.9979 2.00212
A 6.0021 3.99972 4.00028
A 5.99984 4.00014 5.99874
A 6.00294 4.00334 7.99662
B 5.99972 6.00196 9.99776
B 5.99831 5.99665 1.99707
B 5.99832 5.99931 4.00084
B 6.0028 6.00001 5.9986
B 5.99677 6.00351 8.00168
B 6.00309 8.00266 0.000565796
B 6.00349 7.99902 1.99664
B 5.99748 7.99887 4.00252
B 5.99875 8.00028 6.00014
B 5.99874 7.99649 7.9993
A 8.00042 0.00337742 9.99902
B 8.0021 0.0021 1.99847
B 7.9965 0.000839995 3.99985
A 8.00058 9.9982 5.99986
B 8.00239 9.99776 7.9965
A 7.9972 2.0011 0.00210004
A 8.00282 1.99888 2.0018
B 7.99692 2.00098 3.99776
A 7.99806 1.99998 6.001
A 8.00182 1.99958 8.00196
B 8.00224 4.00225 9.9993
B 8.00182 4.00056 1.99972
B 7.9993 3.99943 3.99804
B 7.99748 3.99888 5.99818
B 8.00252 3.99664 7.99776
B 7.99706 5.99944 0.00322036
A 8.00198 6.00338 1.99708
A 7.99764 6.00238 3.99846
A 7.99818 5.99748 6.00028
A 7.99778 6.00282 7.99732
B 8.00154 8.00167 0.000140002
A 7.99988 8.00194 2.0028
B 8.00322 8.00155 4.00267
B 8.00336 8.00238 5.99775
A 8.00002 8.00012 8.00154
125
Atoms. Timestep: 8
A 9.99856 9.99744 0.00254009
B 9.99935 0.00383911 2.0016
A 9.99618 9.9984 4.00208
A 9.99872 0.00322242 6.00178
B 0.00239998 0.00128 8.00224
B 9.99617 1.99713 9.9968
A 9.99886 1.99682 2.0032
B 0.00159183 1.99824 3.9992
A 0.00333741 2.00368 6.0037
A 9.99648 1.99618 7.9971
B 9.99872 3.99759 0.000160002
A 9.99698 4.00256 1.99666
A 9.9997 3.99954 4.00144
A 0.00303997 4.00382 5.99728
A 9.99648 3.99904 8.00318
A 0.00239998 6.00256 9.99952
A 9.99886 5.99616 2.00032
A 9.9987 6.00334 3.99614
B 9.99857 6.00273 5.99664
A 9.99886 5.99984 8.00242
B 0.000951786 7.99968 9.99744
A 9.99918 8.00302 1.99952
B 9.99727 7.9992 3.99633
B 9.99743 7.99695 5.99983
A 9.9971 8.00206 7.996
A 2.00238 9.99854 0.00306282
A 1.99794 9.99696 1.9976
A 2.00158 0.00272014 4.00304
A 2.0008 0.00365735 6.00126
B 2.00367 0.000631807 7.9992
B 1.99887 2.00097 9.99841
B 1.99681 2.00336 1.99887
A 1.9997 1.99872 3.99968
B 2.0016 2.00113 6.0008
A 1.99838 1.9968 8.0032
B 1.99824 3.99792 9.99631
A 2.0008 4.00224 1.9981
A 1.99982 4.00222 3.99934
B 1.9992 4.00384 6.00161
B 1.99681 3.99601 8.00288
B 2.00033 5.99679 0.00240006
B 1.99841 5.99681 1.99872
B 2.00208 5.99888 3.99968
B 2.00111 6.00063 6
B 2.00241 6.00256 7.9984
A 1.99746 8.00002 9.99648
B 1.99617 7.99791 2.00288
A 1.99824 7.99954 4.00066
A 1.99762 8.00082 5.99902
B 2.00208 7.99776 8.00192
B 3.99984 9.99872 0.00208
A 3.99886 9.99744 2.0008
B 4.00032 0.00111176 3.99616
A 3.99806 9.99792 6.00098
A 3.99634 9.99966 8.00238
A 4.0024 2.00384 9.99808
B 3.99728 1.99648 2.00336
A 3.9963 1.99904 3.99826
A 3.9968 2.00352 6.00398
B 3.99616 1.99905 8.0032
B 3.99696 3.99713 0.00175947
A 4.00256 3.99872 1.9992
B 3.99792 3.99776 4.00256
A 4.00082 3.99968 5.99888
B 4.00127 4.00144 8.00273
B 4.00047 5.99839 0.00288009
B 4.00176 6.00097 1.99647
A 3.9968 5.99728 4.00178
A 4.0016 6.00272 5.9979
B 3.99664 5.99967 7.99921
A 3.99726 7.99632 0.00317739
B 4.0032 8.00255 1.99713
B 4.00369 8.00305 3.99855
A 3.9963 7.99728 6.00274
A 3.99616 8.00226 7.99952
A 6.00034 0.000799997 0.00303764
B 6.00289 0.00224008 2.0016
A 6.0016 0.0016 3.996
B 6.0008 0.00064002 5.99648
A 5.9979 0.00130278 7.99682
B 5.99712 1.99825 0.0012887
B 5.99647 1.99743 2.00304
B 5.99921 1.99856 4.00256
B 6.00032 1.99887 6.00079
A 5.99938 1.99744 8.00352
B 6.00032 4.00063 0.00304048
A 6.00366 3.9976 2.00242
A 6.0024 3.99968 4.00032
A 5.99982 4.00016 5.99856
A 6.00336 4.00382 7.99614
B 5.99968 6.00224 9.99744
B 5.99807 5.99617 1.99665
B 5.99808 5.99921 4.00096
B 6.0032 6.00001 5.9984
B 5.99631 6.00401 8.00192
B 6.00353 8.00304 0.000647733
B 6.00399 7.99888 1.99616
B 5.99712 7.99871 4.00288
B 5.99857 8.00032 6.00016
B 5.99856 7.99599 7.9992
A 8.00048 0.00386276 9.99888
B 8.0024 0.0024 1.99825
B 7.996 0.000959992 3.99983
A 8.00066 9.99794 5.99984
B 8.00273 9.99744 7.996
A 7.9968 2.00126 0.00240006
A 8.00322 1.99872 2.00206
B 7.99648 2.00112 3.99744
A 7.99778 1.99998 6.00114
A 8.00208 1.99952 8.00224
B 8.00256 4.00257 9.9992
B 8.00208 4.00064 1.99968
B 7.9992 3.99935 3.99776
B 7.99712 3.99872 5.99792
B 8.00288 3.99616 7.99744
B 7.99664 5.99936 0.00368049
A 8.00226 6.00386 1.99666
A 7.9973 6.00272 3.99824
A 7.99792 5.99712 6.00032
A 7.99746 6.00322 7.99694
B 8.00176 8.00191 0.000160004
A 7.99986 8.00222 2.0032
B 8.00368 8.00177 4.00305
B 8.00384 8.00272 5.99743
A 8.00002 8.00014 8.00176
125
Atoms. Timestep: 9
A 9.99838 9.99712 0.00292227
B 9.99927 0.00431872 2.0018
A 9.99571 9.9982 4.00234
A 9.99856 0.00362833 6.00194
B 0.00269998 0.00143999 8.00252
B 9.99569 1.99677 9.9964
A 9.99871 1.99643 2.0036
B 0.00178966 1.99802 3.9991
A 0.00375143 2.00414 6.00417
A 9.99604 1.99571 7.99673
B 9.99856 3.99729 0.000180002
A 9.99661 4.00288 1.99625
A 9.99967 3.99949 4.00162
A 0.00341996 4.00429 5.99694
A 9.99604 3.99892 8.00357
A 0.00269997 6.00288 9.99946
A 9.99871 5.99568 2.00036
A 9.99853 6.00375 3.99565
B 9.99839 6.00307 5.99622
A 9.99871 5.99982 8.00273
B 0.00106961 7.99964 9.99712
A 9.99907 8.00339 1.99946
B 9.99693 7.9991 3.99587
B 9.99711 7.99657 5.99981
A 9.99673 8.00231 7.9955
A 2.00267 9.99835 0.0034489
A 1.99769 9.99658 1.9973
A 2.00177 0.0030602 4.00342
A 2.0009 0.00411134 6.00141
B 2.00413 0.000709636 7.9991
B 1.99873 2.00109 9.99821
B 1.99641 2.00378 1.99873
A 1.99967 1.99856 3.99964
B 2.0018 2.00127 6.0009
A 1.99817 1.9964 8.0036
B 1.99802 3.99766 9.99585
A 2.0009 4.00252 1.99787
A 1.99979 4.00249 3.99925
B 1.9991 4.00432 6.00181
B 1.99641 3.99551 8.00324
B 2.00037 5.99639 0.00270009
B 1.99821 5.99641 1.99856
B 2.00234 5.99874 3.99964
B 2.00125 6.00071 6
B 2.00271 6.00288 7.9982
A 1.99715 8.00003 9.99604
B 1.99569 7.99765 2.00324
A 1.99802 7.99949 4.00075
A 1.99733 8.00093 5.99889
B 2.00234 7.99748 8.00216
B 3.99982 9.99856 0.00234
A 3.99871 9.99712 2.0009
B 4.00036 0.00124956 3.99568
A 3.99781 9.99766 6.00111
A 3.99589 9.99961 8.00267
A 4.0027 2.00432 9.99784
B 3.99694 1.99604 2.00378
A 3.99583 1.99892 3.99805
A 3.9964 2.00396 6.00447
B 3.99568 1.99893 8.0036
B 3.99658 3.99677 0.00197948
A 4.00288 3.99856 1.9991
B 3.99766 3.99748 4.00288
A 4.00093 3.99964 5.99874
B 4.00143 4.00162 8.00307
B 4.00053 5.99819 0.00324013
B 4.00198 6.00109 1.99603
A 3.9964 5.99694 4.00201
A 4.0018 6.00306 5.99763
B 3.99622 5.99963 7.99911
A 3.99691 7.99586 0.0035714
B 4.0036 8.00287 1.99677
B 4.00415 8.00343 3.99837
A 3.99583 7.99694 6.00309
A 3.99568 8.00255 7.99946
A 6.00039 0.000899996 0.00341743
B 6.00325 0.00252012 2.0018
A 6.0018 0.00180001 3.9955
B 6.0009 0.000720029 5.99604
A 5.99763 0.00146885 7.99643
B 5.99676 1.99803 0.00145102
B 5.99603 1.99711 2.00342
B 5.99911 1.99838 4.00288
B 6.00036 1.99873 6.00089
A 5.99931 1.99712 8.00396
B 6.00036 4.00071 0.00342062
A 6.00411 3.9973 2.00273
A 6.0027 3.99964 4.00036
A 5.99979 4.00018 5.99838
A 6.00378 4.00429 7.99565
B 5.99964 6.00252 9.99712
B 5.99783 5.99569 1.99623
B 5.99784 5.99911 4.00108
B 6.0036 6.00001 5.9982
B 5.99585 6.00451 8.00216
B 6.00397 8.00342 0.000729949
B 6.00449 7.99874 1.99568
B 5.99676 7.99855 4.00324
B 5.99839 8.00036 6.00018
B 5.99838 7.99549 7.9991
A 8.00054 0.00434882 9.99874
B 8.0027 0.0027 1.99803
B 7.9955 0.00107999 3.99981
A 8.00075 9.99769 5.99982
B 8.00307 9.99712 7.9955
A 7.9964 2.00141 0.00270009
A 8.00363 1.99856 2.00231
B 7.99604 2.00126 3.99712
A 7.99751 1.99997 6.00129
A 8.00234 1.99946 8.00252
B 8.00288 4.00289 9.9991
B 8.00234 4.00072 1.99964