LAMMPS Description 

125 atoms 
0 bonds 
0 angles 
0 dihedrals 
0 impropers 

2 atom types 

0.00 10.00 xlo xhi 
0.00 10.00 ylo yhi 
0.00 10.00 zlo zhi 

Atoms 

1 1 0.00 0.00 0.00 
2 2 0.00 0.00 2.00 
3 2 0.00 0.00 4.00 
4 2 0.00 0.00 6.00 
5 2 0.00 0.00 8.00 
6 2 0.00 2.00 0.00 
7 2 0.00 2.00 2.00 
8 1 0.00 2.00 4.00 
9 1 0.00 2.00 6.00 
10 2 0.00 2.00 8.00 
11 1 0.00 4.00 0.00 
12 2 0.00 4.00 2.00 
13 1 0.00 4.00 4.00 
14 1 0.00 4.00 6.00 
15 1 0.00 4.00 8.00 
16 2 0.00 6.00 0.00 
17 1 0.00 6.00 2.00 
18 2 0.00 6.00 4.00 
19 1 0.00 6.00 6.00 
20 1 0.00 6.00 8.00 
21 1 0.00 8.00 0.00 
22 2 0.00 8.00 2.00 
23 1 0.00 8.00 4.00 
24 2 0.00 8.00 6.00 
25 2 0.00 8.00 8.00 
26 2 2.00 0.00 0.00 
27 1 2.00 0.00 2.00 
28 2 2.00 0.00 4.00 
29 1 2.00 0.00 6.00 
30 2 2.00 0.00 8.00 
31 2 2.00 2.00 0.00 
32 2 2.00 2.00 2.00 
33 1 2.00 2.00 4.00 
34 1 2.00 2.00 6.00 
35 2 2.00 2.00 8.00 
36 2 2.00 4.00 0.00 
37 1 2.00 4.00 2.00 
38 2 2.00 4.00 4.00 
39 2 2.00 4.00 6.00 
40 2 2.00 4.00 8.00 
41 1 2.00 6.00 0.00 
42 2 2.00 6.00 2.00 
43 2 2.00 6.00 4.00 
44 1 2.00 6.00 6.00 
45 1 2.00 6.00 8.00 
46 2 2.00 8.00 0.00 
47 1 2.00 8.00 2.00 
48 2 2.00 8.00 4.00 
49 1 2.00 8.00 6.00 
50 1 2.00 8.00 8.00 
51 1 4.00 0.00 0.00 
52 2 4.00 0.00 2.00 
53 1 4.00 0.00 4.00 
54 1 4.00 0.00 6.00 
55 2 4.00 0.00 8.00 
56 2 4.00 2.00 0.00 
57 2 4.00 2.00 2.00 
58 2 4.00 2.00 4.00 
59 1 4.00 2.00 6.00 
60 1 4.00 2.00 8.00 
61 2 4.00 4.00 0.00 
62 1 4.00 4.00 2.00 
63 2 4.00 4.00 4.00 
64 2 4.00 4.00 6.00 
65 2 4.00 4.00 8.00 
66 2 4.00 6.00 0.00 
67 2 4.00 6.00 2.00 
68 1 4.00 6.00 4.00 
69 1 4.00 6.00 6.00 
70 2 4.00 6.00 8.00 
71 2 4.00 8.00 0.00 
72 1 4.00 8.00 2.00 
73 1 4.00 8.00 4.00 
74 1 4.00 8.00 6.00 
75 2 4.00 8.00 8.00 
76 1 6.00 0.00 0.00 
77 1 6.00 0.00 2.00 
78 2 6.00 0.00 4.00 
79 2 6.00 0.00 6.00 
80 2 6.00 0.00 8.00 
81 1 6.00 2.00 0.00 
82 1 6.00 2.00 2.00 
83 1 6.00 2.00 4.00 
84 1 6.00 2.00 6.00 
85 2 6.00 2.00 8.00 
86 2 6.00 4.00 0.00 
87 1 6.00 4.00 2.00 
88 2 6.00 4.00 4.00 
89 1 6.00 4.00 6.00 
90 1 6.00 4.00 8.00 
91 2 6.00 6.00 0.00 
92 2 6.00 6.00 2.00 
93 2 6.00 6.00 4.00 
94 2 6.00 6.00 6.00 
95 2 6.00 6.00 8.00 
96 2 6.00 8.00 0.00 
97 1 6.00 8.00 2.00 
98 1 6.00 8.00 4.00 
99 1 6.00 8.00 6.00 
100 1 6.00 8.00 8.00 
101 1 8.00 0.00 0.00 
102 2 8.00 0.00 2.00 
103 1 8.00 0.00 4.00 
104 1 8.00 0.00 6.00 
105 2 8.00 0.00 8.00 
106 1 8.00 2.00 0.00 
107 2 8.00 2.00 2.00 
108 2 8.00 2.00 4.00 
109 1 8.00 2.00 6.00 
110 1 8.00 2.00 8.00 
111 2 8.00 4.00 0.00 
112 2 8.00 4.00 2.00 
113 2 8.00 4.00 4.00 
114 2 8.00 4.00 6.00 
115 1 8.00 4.00 8.00 
116 1 8.00 6.00 0.00 
117 2 8.00 6.00 2.00 
118 1 8.00 6.00 4.00 
119 1 8.00 6.00 6.00 
120 1 8.00 6.00 8.00 
121 1 8.00 8.00 0.00 
122 1 8.00 8.00 2.00 
123 1 8.00 8.00 4.00 
124 2 8.00 8.00 6.00 
125 2 8.00 8.00 8.00 

Masses 

1 1.00
2 1.00

Velocities 

1 -0.06 -0.13 0.12 
2 0.19 0.22 0.14 
3 0.04 -0.08 -0.13 
4 -0.15 -0.17 0.23 
5 0.11 -0.02 0.16 
6 0.11 0.08 0.15 
7 0.02 0.15 -0.04 
8 -0.21 -0.12 0.07 
9 0.04 0.13 0.05 
10 0.22 -0.13 0.01 
11 -0.13 -0.04 0.19 
12 -0.10 0.12 -0.14 
13 -0.06 0.20 0.00 
14 -0.03 0.05 0.12 
15 -0.09 0.19 -0.21 
16 0.02 0.06 0.02 
17 0.15 -0.13 0.15 
18 -0.08 0.00 -0.11 
19 -0.18 -0.04 0.21 
20 -0.20 -0.21 0.13 
21 -0.13 -0.06 0.04 
22 0.23 0.19 -0.12 
23 0.17 0.14 0.12 
24 -0.21 0.01 -0.22 
25 0.22 -0.23 0.13 
26 0.17 -0.01 0.24 
27 -0.03 -0.14 0.08 
28 0.17 -0.12 -0.11 
29 0.17 -0.18 0.11 
30 0.09 -0.22 0.12 
31 0.17 0.02 0.02 
32 -0.22 0.05 0.18 
33 0.22 0.16 -0.04 
34 0.10 0.01 -0.25 
35 -0.07 0.12 0.19 
36 0.19 -0.13 -0.09 
37 0.13 -0.06 -0.02 
38 -0.02 -0.23 -0.05 
39 0.20 -0.13 -0.09 
40 0.01 0.19 -0.07 
41 0.19 -0.10 -0.05 
42 0.06 0.03 -0.08 
43 0.14 -0.12 -0.23 
44 0.22 0.01 -0.11 
45 0.20 0.14 0.11 
46 -0.20 -0.16 -0.16 
47 -0.24 0.05 0.05 
48 -0.22 -0.07 0.08 
49 -0.21 0.14 -0.10 
50 -0.02 -0.13 0.18 
51 -0.10 -0.19 0.03 
52 0.11 -0.19 -0.01 
53 0.07 -0.09 -0.18 
54 -0.11 -0.18 0.13 
55 -0.12 0.25 0.22 
56 0.11 0.12 -0.01 
57 -0.05 0.07 0.15 
58 -0.21 0.00 -0.04 
59 -0.06 -0.03 -0.07 
60 -0.15 -0.02 -0.03 
61 0.16 -0.16 0.03 
62 -0.07 -0.11 0.20 
63 -0.12 0.25 0.07 
64 -0.16 0.07 -0.13 
65 0.23 0.18 -0.16 
66 0.08 -0.25 -0.12 
67 0.14 -0.25 -0.19 
68 0.13 0.05 -0.23 
69 -0.16 -0.22 0.24 
70 -0.14 -0.10 -0.16 
71 -0.08 0.08 0.21 
72 0.13 0.17 0.01 
73 0.25 0.23 0.10 
74 -0.09 -0.24 0.01 
75 0.18 -0.17 -0.05 
76 -0.10 -0.12 -0.08 
77 -0.22 0.22 -0.21 
78 0.10 0.16 0.18 
79 -0.17 0.03 -0.14 
80 -0.12 -0.20 0.16 
81 -0.10 -0.07 -0.05 
82 -0.21 0.07 0.13 
83 0.19 0.16 -0.23 
84 0.22 0.22 0.04 
85 -0.24 0.14 -0.16 
86 -0.15 -0.10 -0.21 
87 -0.22 0.16 0.05 
88 0.19 0.22 -0.13 
89 -0.20 0.24 -0.18 
90 -0.01 -0.09 0.25 
91 -0.06 -0.16 -0.23 
92 -0.21 0.16 0.03 
93 0.00 0.07 -0.11 
94 0.25 0.16 0.05 
95 -0.09 0.07 -0.02 
96 0.05 0.17 0.00 
97 0.24 -0.11 0.11 
98 0.18 -0.04 0.13 
99 -0.10 -0.17 0.11 
100 0.14 0.05 -0.22 
101 -0.04 -0.11 0.09 
102 -0.16 0.02 0.19 
103 -0.11 -0.02 -0.12 
104 -0.09 0.03 0.10 
105 0.07 -0.16 0.20 
106 -0.09 -0.09 -0.21 
107 -0.15 -0.22 0.10 
108 -0.23 0.10 0.12 
109 0.14 -0.18 -0.06 
110 0.14 -0.00 -0.11 
111 0.24 0.11 -0.13 
112 -0.14 0.08 -0.24 
113 0.24 0.20 -0.14 
114 -0.21 0.18 0.23 
115 0.17 -0.16 0.14 
116 0.11 -0.04 -0.02 
117 0.10 -0.06 0.05 
118 -0.22 -0.18 0.23 
119 -0.20 0.13 0.14 
120 -0.08 0.01 -0.24 
121 -0.02 -0.12 -0.06 
122 0.06 0.22 0.08 
123 -0.04 -0.14 0.17 
124 0.11 -0.19 -0.22 
125 0.01 0.16 -0.08 

