LAMMPS Description 

216 atoms 
0 bonds 
0 angles 
0 dihedrals 
0 impropers 

2 atom types 

0.00 20.00 xlo xhi 
0.00 20.00 ylo yhi 
0.00 20.00 zlo zhi 

Atoms 

1 1 0.00 0.00 0.00 
2 2 0.00 0.00 3.33 
3 1 0.00 0.00 6.67 
4 2 0.00 0.00 10.00 
5 2 0.00 0.00 13.33 
6 1 0.00 0.00 16.67 
7 1 0.00 3.33 0.00 
8 1 0.00 3.33 3.33 
9 2 0.00 3.33 6.67 
10 1 0.00 3.33 10.00 
11 1 0.00 3.33 13.33 
12 1 0.00 3.33 16.67 
13 1 0.00 6.67 0.00 
14 1 0.00 6.67 3.33 
15 2 0.00 6.67 6.67 
16 2 0.00 6.67 10.00 
17 1 0.00 6.67 13.33 
18 2 0.00 6.67 16.67 
19 2 0.00 10.00 0.00 
20 2 0.00 10.00 3.33 
21 2 0.00 10.00 6.67 
22 2 0.00 10.00 10.00 
23 2 0.00 10.00 13.33 
24 1 0.00 10.00 16.67 
25 2 0.00 13.33 0.00 
26 1 0.00 13.33 3.33 
27 2 0.00 13.33 6.67 
28 1 0.00 13.33 10.00 
29 2 0.00 13.33 13.33 
30 2 0.00 13.33 16.67 
31 2 0.00 16.67 0.00 
32 2 0.00 16.67 3.33 
33 2 0.00 16.67 6.67 
34 1 0.00 16.67 10.00 
35 2 0.00 16.67 13.33 
36 2 0.00 16.67 16.67 
37 2 3.33 0.00 0.00 
38 1 3.33 0.00 3.33 
39 1 3.33 0.00 6.67 
40 2 3.33 0.00 10.00 
41 2 3.33 0.00 13.33 
42 1 3.33 0.00 16.67 
43 2 3.33 3.33 0.00 
44 1 3.33 3.33 3.33 
45 1 3.33 3.33 6.67 
46 1 3.33 3.33 10.00 
47 1 3.33 3.33 13.33 
48 2 3.33 3.33 16.67 
49 2 3.33 6.67 0.00 
50 2 3.33 6.67 3.33 
51 2 3.33 6.67 6.67 
52 2 3.33 6.67 10.00 
53 1 3.33 6.67 13.33 
54 1 3.33 6.67 16.67 
55 2 3.33 10.00 0.00 
56 2 3.33 10.00 3.33 
57 2 3.33 10.00 6.67 
58 2 3.33 10.00 10.00 
59 2 3.33 10.00 13.33 
60 1 3.33 10.00 16.67 
61 2 3.33 13.33 0.00 
62 1 3.33 13.33 3.33 
63 2 3.33 13.33 6.67 
64 2 3.33 13.33 10.00 
65 2 3.33 13.33 13.33 
66 2 3.33 13.33 16.67 
67 2 3.33 16.67 0.00 
68 1 3.33 16.67 3.33 
69 1 3.33 16.67 6.67 
70 2 3.33 16.67 10.00 
71 2 3.33 16.67 13.33 
72 2 3.33 16.67 16.67 
73 1 6.67 0.00 0.00 
74 2 6.67 0.00 3.33 
75 1 6.67 0.00 6.67 
76 2 6.67 0.00 10.00 
77 1 6.67 0.00 13.33 
78 1 6.67 0.00 16.67 
79 1 6.67 3.33 0.00 
80 1 6.67 3.33 3.33 
81 2 6.67 3.33 6.67 
82 1 6.67 3.33 10.00 
83 2 6.67 3.33 13.33 
84 2 6.67 3.33 16.67 
85 2 6.67 6.67 0.00 
86 1 6.67 6.67 3.33 
87 1 6.67 6.67 6.67 
88 2 6.67 6.67 10.00 
89 2 6.67 6.67 13.33 
90 1 6.67 6.67 16.67 
91 2 6.67 10.00 0.00 
92 1 6.67 10.00 3.33 
93 1 6.67 10.00 6.67 
94 1 6.67 10.00 10.00 
95 2 6.67 10.00 13.33 
96 2 6.67 10.00 16.67 
97 1 6.67 13.33 0.00 
98 2 6.67 13.33 3.33 
99 1 6.67 13.33 6.67 
100 1 6.67 13.33 10.00 
101 1 6.67 13.33 13.33 
102 2 6.67 13.33 16.67 
103 1 6.67 16.67 0.00 
104 1 6.67 16.67 3.33 
105 1 6.67 16.67 6.67 
106 2 6.67 16.67 10.00 
107 1 6.67 16.67 13.33 
108 1 6.67 16.67 16.67 
109 2 10.00 0.00 0.00 
110 2 10.00 0.00 3.33 
111 1 10.00 0.00 6.67 
112 2 10.00 0.00 10.00 
113 2 10.00 0.00 13.33 
114 2 10.00 0.00 16.67 
115 2 10.00 3.33 0.00 
116 2 10.00 3.33 3.33 
117 1 10.00 3.33 6.67 
118 1 10.00 3.33 10.00 
119 2 10.00 3.33 13.33 
120 1 10.00 3.33 16.67 
121 2 10.00 6.67 0.00 
122 2 10.00 6.67 3.33 
123 2 10.00 6.67 6.67 
124 2 10.00 6.67 10.00 
125 2 10.00 6.67 13.33 
126 1 10.00 6.67 16.67 
127 1 10.00 10.00 0.00 
128 2 10.00 10.00 3.33 
129 2 10.00 10.00 6.67 
130 2 10.00 10.00 10.00 
131 1 10.00 10.00 13.33 
132 2 10.00 10.00 16.67 
133 2 10.00 13.33 0.00 
134 1 10.00 13.33 3.33 
135 2 10.00 13.33 6.67 
136 1 10.00 13.33 10.00 
137 2 10.00 13.33 13.33 
138 1 10.00 13.33 16.67 
139 2 10.00 16.67 0.00 
140 2 10.00 16.67 3.33 
141 1 10.00 16.67 6.67 
142 1 10.00 16.67 10.00 
143 2 10.00 16.67 13.33 
144 2 10.00 16.67 16.67 
145 2 13.33 0.00 0.00 
146 1 13.33 0.00 3.33 
147 2 13.33 0.00 6.67 
148 1 13.33 0.00 10.00 
149 2 13.33 0.00 13.33 
150 1 13.33 0.00 16.67 
151 1 13.33 3.33 0.00 
152 1 13.33 3.33 3.33 
153 2 13.33 3.33 6.67 
154 1 13.33 3.33 10.00 
155 1 13.33 3.33 13.33 
156 2 13.33 3.33 16.67 
157 1 13.33 6.67 0.00 
158 1 13.33 6.67 3.33 
159 1 13.33 6.67 6.67 
160 1 13.33 6.67 10.00 
161 2 13.33 6.67 13.33 
162 2 13.33 6.67 16.67 
163 2 13.33 10.00 0.00 
164 1 13.33 10.00 3.33 
165 2 13.33 10.00 6.67 
166 2 13.33 10.00 10.00 
167 1 13.33 10.00 13.33 
168 2 13.33 10.00 16.67 
169 1 13.33 13.33 0.00 
170 1 13.33 13.33 3.33 
171 1 13.33 13.33 6.67 
172 1 13.33 13.33 10.00 
173 2 13.33 13.33 13.33 
174 2 13.33 13.33 16.67 
175 2 13.33 16.67 0.00 
176 2 13.33 16.67 3.33 
177 2 13.33 16.67 6.67 
178 2 13.33 16.67 10.00 
179 2 13.33 16.67 13.33 
180 2 13.33 16.67 16.67 
181 2 16.67 0.00 0.00 
182 2 16.67 0.00 3.33 
183 2 16.67 0.00 6.67 
184 2 16.67 0.00 10.00 
185 1 16.67 0.00 13.33 
186 1 16.67 0.00 16.67 
187 2 16.67 3.33 0.00 
188 1 16.67 3.33 3.33 
189 1 16.67 3.33 6.67 
190 1 16.67 3.33 10.00 
191 2 16.67 3.33 13.33 
192 2 16.67 3.33 16.67 
193 1 16.67 6.67 0.00 
194 1 16.67 6.67 3.33 
195 2 16.67 6.67 6.67 
196 2 16.67 6.67 10.00 
197 2 16.67 6.67 13.33 
198 1 16.67 6.67 16.67 
199 2 16.67 10.00 0.00 
200 2 16.67 10.00 3.33 
201 1 16.67 10.00 6.67 
202 1 16.67 10.00 10.00 
203 1 16.67 10.00 13.33 
204 1 16.67 10.00 16.67 
205 1 16.67 13.33 0.00 
206 2 16.67 13.33 3.33 
207 1 16.67 13.33 6.67 
208 1 16.67 13.33 10.00 
209 1 16.67 13.33 13.33 
210 2 16.67 13.33 16.67 
211 2 16.67 16.67 0.00 
212 1 16.67 16.67 3.33 
213 1 16.67 16.67 6.67 
214 1 16.67 16.67 10.00 
215 1 16.67 16.67 13.33 
216 2 16.67 16.67 16.67 

Masses 

1 1.00
2 1.00

Velocities 

1 -0.18 -0.24 0.04 
2 0.23 -0.09 0.10 
3 0.05 -0.09 -0.22 
4 -0.25 -0.10 0.25 
5 -0.21 -0.11 -0.22 
6 0.07 0.03 -0.15 
7 0.13 0.20 0.17 
8 0.02 0.18 -0.20 
9 -0.03 0.23 0.18 
10 0.03 0.19 -0.04 
11 -0.16 0.04 0.09 
12 0.17 0.09 -0.09 
13 -0.05 -0.23 0.19 
14 -0.12 -0.08 0.19 
15 0.24 0.18 -0.04 
16 -0.20 -0.04 -0.06 
17 -0.17 -0.13 0.14 
18 -0.08 0.05 0.11 
19 -0.01 -0.02 0.21 
20 -0.21 -0.01 0.17 
21 -0.14 0.23 -0.21 
22 -0.21 -0.24 -0.21 
23 0.15 0.08 0.02 
24 0.20 0.11 0.12 
25 -0.05 -0.07 -0.06 
26 -0.00 0.22 -0.16 
27 0.21 -0.02 0.19 
28 0.21 0.01 0.17 
29 0.04 0.16 0.22 
30 -0.06 0.06 -0.25 
31 -0.07 0.22 0.21 
32 0.09 -0.07 -0.19 
33 -0.14 -0.20 0.18 
34 -0.07 -0.15 -0.09 
35 -0.18 -0.16 0.03 
36 0.22 -0.17 -0.12 
37 0.17 0.19 -0.09 
38 -0.06 0.17 -0.22 
39 -0.15 0.20 -0.02 
40 -0.13 -0.01 -0.07 
41 0.00 -0.21 -0.09 
42 0.11 0.13 -0.10 
43 -0.24 -0.02 0.16 
44 -0.19 -0.08 0.22 
45 -0.03 0.20 0.22 
46 0.17 -0.21 0.03 
47 0.05 0.02 -0.15 
48 0.09 -0.08 0.12 
49 0.25 0.02 0.23 
50 0.23 0.01 0.21 
51 0.17 0.23 0.10 
52 -0.02 0.15 -0.09 
53 -0.01 -0.17 -0.10 
54 0.22 -0.14 -0.07 
55 -0.18 0.16 -0.23 
56 0.21 -0.08 -0.14 
57 0.05 0.06 0.05 
58 -0.09 -0.04 -0.19 
59 -0.17 0.01 0.06 
60 0.20 0.13 -0.11 
61 -0.13 -0.04 -0.12 
62 -0.18 -0.17 -0.17 
63 -0.24 -0.23 -0.11 
64 0.12 0.02 0.23 
65 0.19 -0.25 0.01 
66 0.06 0.21 -0.07 
67 0.01 -0.03 -0.24 
68 -0.16 0.08 -0.18 
69 -0.24 0.19 -0.24 
70 0.20 0.18 0.21 
71 -0.01 -0.23 0.07 
72 -0.12 0.04 0.09 
73 -0.19 0.00 0.11 
74 -0.22 -0.10 -0.07 
75 0.12 0.21 0.15 
76 -0.14 -0.24 -0.14 
77 -0.21 -0.24 0.14 
78 0.11 0.14 0.05 
79 -0.11 -0.22 -0.18 
80 -0.22 0.11 0.17 
81 -0.14 -0.15 0.06 
82 -0.16 -0.11 -0.07 
83 0.11 0.14 -0.14 
84 -0.06 0.10 0.03 
85 -0.21 -0.22 -0.02 
86 0.01 0.04 0.24 
87 -0.15 -0.13 0.04 
88 0.16 0.06 0.14 
89 -0.21 0.12 -0.02 
90 -0.11 0.25 -0.16 
91 -0.16 0.14 -0.15 
92 -0.14 0.09 0.09 
93 0.13 0.25 0.11 
94 -0.21 0.10 0.19 
95 0.09 0.10 -0.12 
96 0.04 0.02 0.01 
97 -0.01 -0.23 -0.22 
98 -0.21 0.12 0.02 
99 -0.10 -0.15 0.07 
100 0.11 0.20 0.21 
101 0.16 0.01 0.02 
102 -0.24 0.22 0.18 
103 -0.19 -0.13 -0.04 
104 0.02 -0.07 -0.24 
105 -0.24 0.09 0.12 
106 0.24 0.14 -0.08 
107 0.03 0.22 0.12 
108 0.16 -0.10 -0.18 
109 0.12 0.15 -0.11 
110 0.04 0.17 -0.25 
111 0.10 -0.05 0.07 
112 0.06 0.13 0.19 
113 0.14 0.07 -0.17 
114 -0.13 0.18 0.17 
115 0.24 -0.07 0.24 
116 0.15 0.17 0.24 
117 0.18 -0.16 -0.23 
118 0.17 0.08 -0.20 
119 -0.19 -0.21 0.12 
120 0.01 0.01 -0.07 
121 0.22 0.14 -0.20 
122 0.09 -0.05 -0.10 
123 -0.13 -0.21 0.10 
124 0.05 -0.01 -0.20 
125 0.07 0.10 -0.03 
126 0.09 0.21 0.20 
127 -0.17 -0.12 0.20 
128 -0.09 -0.22 0.03 
129 -0.11 -0.17 -0.16 
130 0.01 -0.05 -0.25 
131 -0.07 -0.16 -0.21 
132 -0.17 -0.04 -0.16 
133 0.16 0.01 0.20 
134 0.01 -0.19 -0.18 
135 0.02 0.12 0.23 
136 -0.25 0.19 0.05 
137 -0.16 0.15 -0.16 
138 0.08 0.16 -0.18 
139 0.04 0.00 0.02 
140 0.12 0.20 -0.12 
141 -0.10 0.16 0.00 
142 0.22 -0.03 -0.07 
143 -0.19 0.21 -0.18 
144 0.24 -0.03 -0.22 
145 0.19 -0.01 0.13 
146 0.18 0.10 0.23 
147 0.13 0.12 0.20 
148 0.24 -0.20 0.03 
149 0.02 -0.10 0.00 
150 -0.03 -0.25 0.10 
151 0.18 0.09 0.22 
152 -0.19 -0.20 0.05 
153 -0.07 -0.02 0.24 
154 0.24 -0.02 -0.21 
155 -0.22 0.19 0.24 
156 0.07 0.19 -0.04 
157 -0.03 0.09 -0.22 
158 0.04 -0.18 -0.22 
159 0.19 0.05 0.17 
160 -0.16 -0.03 0.20 
161 0.19 -0.11 -0.18 
162 0.10 0.13 0.04 
163 -0.13 -0.16 -0.06 
164 0.02 0.22 0.17 
165 0.24 0.02 0.19 
166 -0.22 0.22 0.12 
167 -0.21 0.06 -0.23 
168 0.02 0.20 -0.20 
169 0.04 -0.01 0.07 
170 -0.01 0.03 -0.20 
171 0.08 0.12 0.24 
172 0.20 -0.01 -0.02 
173 -0.04 0.09 0.18 
174 -0.02 0.19 -0.13 
175 0.06 0.08 -0.23 
176 0.14 0.06 0.15 
177 -0.18 -0.12 -0.10 
178 0.14 -0.18 0.00 
179 0.08 -0.21 -0.08 
180 -0.04 -0.10 -0.06 
181 -0.09 -0.01 -0.00 
182 -0.00 0.13 0.16 
183 0.12 -0.20 0.11 
184 0.11 0.14 -0.08 
185 -0.16 -0.10 -0.15 
186 -0.16 -0.12 -0.17 
187 -0.06 0.00 -0.21 
188 0.20 -0.03 0.19 
189 0.18 0.00 0.08 
190 0.11 0.18 0.05 
191 -0.23 -0.09 -0.12 
192 -0.23 -0.07 -0.18 
193 -0.02 0.03 -0.20 
194 -0.11 -0.21 0.12 
195 -0.21 -0.19 0.10 
196 0.06 -0.13 -0.05 
197 0.21 -0.23 0.03 
198 -0.11 0.03 0.18 
199 -0.24 0.05 -0.21 
200 0.04 0.03 0.16 
201 0.23 -0.00 -0.18 
202 0.09 0.04 -0.04 
203 0.21 -0.02 0.02 
204 -0.03 0.17 0.10 
205 0.15 0.18 -0.06 
206 -0.00 0.11 -0.17 
207 -0.02 0.23 -0.13 
208 0.06 0.15 -0.11 
209 0.03 0.13 0.02 
210 -0.16 0.25 0.14 
211 -0.17 -0.11 -0.15 
212 -0.17 0.06 0.09 
213 0.06 -0.09 0.02 
214 -0.16 0.18 0.19 
215 -0.17 0.07 -0.18 
216 0.06 0.20 0.17 

