LAMMPS Description 

216 atoms 
0 bonds 
0 angles 
0 dihedrals 
0 impropers 

2 atom types 

0.00 10.00 xlo xhi 
0.00 10.00 ylo yhi 
0.00 10.00 zlo zhi 

Atoms 

1 1 0.00 0.00 0.00 
2 2 0.00 0.00 1.67 
3 1 0.00 0.00 3.33 
4 2 0.00 0.00 5.00 
5 2 0.00 0.00 6.67 
6 2 0.00 0.00 8.33 
7 1 0.00 1.67 0.00 
8 1 0.00 1.67 1.67 
9 2 0.00 1.67 3.33 
10 2 0.00 1.67 5.00 
11 2 0.00 1.67 6.67 
12 2 0.00 1.67 8.33 
13 2 0.00 3.33 0.00 
14 2 0.00 3.33 1.67 
15 2 0.00 3.33 3.33 
16 1 0.00 3.33 5.00 
17 2 0.00 3.33 6.67 
18 2 0.00 3.33 8.33 
19 1 0.00 5.00 0.00 
20 2 0.00 5.00 1.67 
21 2 0.00 5.00 3.33 
22 2 0.00 5.00 5.00 
23 2 0.00 5.00 6.67 
24 1 0.00 5.00 8.33 
25 2 0.00 6.67 0.00 
26 2 0.00 6.67 1.67 
27 1 0.00 6.67 3.33 
28 1 0.00 6.67 5.00 
29 1 0.00 6.67 6.67 
30 2 0.00 6.67 8.33 
31 2 0.00 8.33 0.00 
32 2 0.00 8.33 1.67 
33 1 0.00 8.33 3.33 
34 2 0.00 8.33 5.00 
35 2 0.00 8.33 6.67 
36 2 0.00 8.33 8.33 
37 1 1.67 0.00 0.00 
38 2 1.67 0.00 1.67 
39 2 1.67 0.00 3.33 
40 2 1.67 0.00 5.00 
41 1 1.67 0.00 6.67 
42 2 1.67 0.00 8.33 
43 2 1.67 1.67 0.00 
44 1 1.67 1.67 1.67 
45 1 1.67 1.67 3.33 
46 2 1.67 1.67 5.00 
47 1 1.67 1.67 6.67 
48 1 1.67 1.67 8.33 
49 2 1.67 3.33 0.00 
50 2 1.67 3.33 1.67 
51 2 1.67 3.33 3.33 
52 2 1.67 3.33 5.00 
53 2 1.67 3.33 6.67 
54 1 1.67 3.33 8.33 
55 2 1.67 5.00 0.00 
56 1 1.67 5.00 1.67 
57 1 1.67 5.00 3.33 
58 2 1.67 5.00 5.00 
59 2 1.67 5.00 6.67 
60 1 1.67 5.00 8.33 
61 1 1.67 6.67 0.00 
62 1 1.67 6.67 1.67 
63 1 1.67 6.67 3.33 
64 2 1.67 6.67 5.00 
65 1 1.67 6.67 6.67 
66 2 1.67 6.67 8.33 
67 1 1.67 8.33 0.00 
68 1 1.67 8.33 1.67 
69 2 1.67 8.33 3.33 
70 1 1.67 8.33 5.00 
71 1 1.67 8.33 6.67 
72 1 1.67 8.33 8.33 
73 1 3.33 0.00 0.00 
74 2 3.33 0.00 1.67 
75 2 3.33 0.00 3.33 
76 2 3.33 0.00 5.00 
77 2 3.33 0.00 6.67 
78 1 3.33 0.00 8.33 
79 2 3.33 1.67 0.00 
80 2 3.33 1.67 1.67 
81 1 3.33 1.67 3.33 
82 1 3.33 1.67 5.00 
83 2 3.33 1.67 6.67 
84 1 3.33 1.67 8.33 
85 1 3.33 3.33 0.00 
86 2 3.33 3.33 1.67 
87 2 3.33 3.33 3.33 
88 2 3.33 3.33 5.00 
89 2 3.33 3.33 6.67 
90 2 3.33 3.33 8.33 
91 2 3.33 5.00 0.00 
92 2 3.33 5.00 1.67 
93 2 3.33 5.00 3.33 
94 1 3.33 5.00 5.00 
95 1 3.33 5.00 6.67 
96 1 3.33 5.00 8.33 
97 1 3.33 6.67 0.00 
98 2 3.33 6.67 1.67 
99 1 3.33 6.67 3.33 
100 2 3.33 6.67 5.00 
101 1 3.33 6.67 6.67 
102 2 3.33 6.67 8.33 
103 1 3.33 8.33 0.00 
104 1 3.33 8.33 1.67 
105 1 3.33 8.33 3.33 
106 2 3.33 8.33 5.00 
107 1 3.33 8.33 6.67 
108 2 3.33 8.33 8.33 
109 1 5.00 0.00 0.00 
110 1 5.00 0.00 1.67 
111 2 5.00 0.00 3.33 
112 1 5.00 0.00 5.00 
113 1 5.00 0.00 6.67 
114 1 5.00 0.00 8.33 
115 1 5.00 1.67 0.00 
116 2 5.00 1.67 1.67 
117 2 5.00 1.67 3.33 
118 1 5.00 1.67 5.00 
119 2 5.00 1.67 6.67 
120 2 5.00 1.67 8.33 
121 2 5.00 3.33 0.00 
122 2 5.00 3.33 1.67 
123 1 5.00 3.33 3.33 
124 1 5.00 3.33 5.00 
125 2 5.00 3.33 6.67 
126 2 5.00 3.33 8.33 
127 1 5.00 5.00 0.00 
128 1 5.00 5.00 1.67 
129 2 5.00 5.00 3.33 
130 1 5.00 5.00 5.00 
131 2 5.00 5.00 6.67 
132 1 5.00 5.00 8.33 
133 1 5.00 6.67 0.00 
134 1 5.00 6.67 1.67 
135 1 5.00 6.67 3.33 
136 1 5.00 6.67 5.00 
137 2 5.00 6.67 6.67 
138 1 5.00 6.67 8.33 
139 1 5.00 8.33 0.00 
140 2 5.00 8.33 1.67 
141 2 5.00 8.33 3.33 
142 2 5.00 8.33 5.00 
143 2 5.00 8.33 6.67 
144 2 5.00 8.33 8.33 
145 1 6.67 0.00 0.00 
146 1 6.67 0.00 1.67 
147 1 6.67 0.00 3.33 
148 1 6.67 0.00 5.00 
149 2 6.67 0.00 6.67 
150 1 6.67 0.00 8.33 
151 1 6.67 1.67 0.00 
152 1 6.67 1.67 1.67 
153 2 6.67 1.67 3.33 
154 1 6.67 1.67 5.00 
155 1 6.67 1.67 6.67 
156 1 6.67 1.67 8.33 
157 2 6.67 3.33 0.00 
158 2 6.67 3.33 1.67 
159 1 6.67 3.33 3.33 
160 1 6.67 3.33 5.00 
161 1 6.67 3.33 6.67 
162 2 6.67 3.33 8.33 
163 2 6.67 5.00 0.00 
164 1 6.67 5.00 1.67 
165 1 6.67 5.00 3.33 
166 2 6.67 5.00 5.00 
167 2 6.67 5.00 6.67 
168 2 6.67 5.00 8.33 
169 1 6.67 6.67 0.00 
170 1 6.67 6.67 1.67 
171 2 6.67 6.67 3.33 
172 2 6.67 6.67 5.00 
173 2 6.67 6.67 6.67 
174 1 6.67 6.67 8.33 
175 2 6.67 8.33 0.00 
176 1 6.67 8.33 1.67 
177 2 6.67 8.33 3.33 
178 1 6.67 8.33 5.00 
179 2 6.67 8.33 6.67 
180 2 6.67 8.33 8.33 
181 2 8.33 0.00 0.00 
182 1 8.33 0.00 1.67 
183 2 8.33 0.00 3.33 
184 1 8.33 0.00 5.00 
185 2 8.33 0.00 6.67 
186 2 8.33 0.00 8.33 
187 1 8.33 1.67 0.00 
188 1 8.33 1.67 1.67 
189 1 8.33 1.67 3.33 
190 2 8.33 1.67 5.00 
191 2 8.33 1.67 6.67 
192 2 8.33 1.67 8.33 
193 1 8.33 3.33 0.00 
194 2 8.33 3.33 1.67 
195 1 8.33 3.33 3.33 
196 1 8.33 3.33 5.00 
197 2 8.33 3.33 6.67 
198 2 8.33 3.33 8.33 
199 1 8.33 5.00 0.00 
200 1 8.33 5.00 1.67 
201 1 8.33 5.00 3.33 
202 1 8.33 5.00 5.00 
203 2 8.33 5.00 6.67 
204 1 8.33 5.00 8.33 
205 2 8.33 6.67 0.00 
206 1 8.33 6.67 1.67 
207 2 8.33 6.67 3.33 
208 1 8.33 6.67 5.00 
209 1 8.33 6.67 6.67 
210 2 8.33 6.67 8.33 
211 1 8.33 8.33 0.00 
212 1 8.33 8.33 1.67 
213 1 8.33 8.33 3.33 
214 2 8.33 8.33 5.00 
215 1 8.33 8.33 6.67 
216 1 8.33 8.33 8.33 

Masses 

1 1.00
2 1.00

Velocities 

1 0.16 0.07 -0.03 
2 0.07 -0.05 0.07 
3 0.10 -0.21 -0.03 
4 -0.11 -0.11 0.10 
5 -0.20 -0.22 0.06 
6 -0.23 -0.21 -0.08 
7 -0.02 -0.13 -0.03 
8 -0.16 -0.01 -0.03 
9 -0.06 0.05 -0.20 
10 -0.09 0.23 -0.14 
11 -0.13 -0.19 0.15 
12 0.06 -0.20 -0.12 
13 0.08 0.14 0.01 
14 -0.23 -0.15 -0.18 
15 0.24 -0.24 -0.09 
16 -0.25 -0.12 -0.05 
17 0.01 -0.01 -0.05 
18 -0.06 -0.04 0.18 
19 0.19 0.06 -0.14 
20 0.23 -0.22 0.18 
21 -0.20 -0.25 -0.03 
22 -0.21 -0.23 -0.10 
23 0.04 -0.21 -0.03 
24 -0.16 -0.09 -0.11 
25 -0.15 -0.11 -0.07 
26 0.22 -0.07 0.02 
27 0.08 -0.08 -0.08 
28 -0.17 -0.21 0.02 
29 -0.01 -0.00 0.21 
30 -0.25 0.22 -0.00 
31 0.10 0.23 -0.08 
32 0.15 0.20 0.20 
33 -0.23 -0.17 -0.10 
34 -0.24 -0.14 0.08 
35 -0.09 -0.02 0.25 
36 0.10 0.19 0.03 
37 0.02 0.23 -0.23 
38 -0.16 0.18 0.18 
39 -0.18 -0.19 -0.06 
40 0.18 0.14 0.06 
41 0.12 0.13 -0.03 
42 -0.23 0.02 -0.18 
43 -0.08 0.14 0.06 
44 -0.21 0.07 -0.03 
45 0.21 0.01 0.07 
46 0.14 0.04 -0.12 
47 -0.07 0.06 0.09 
48 0.10 -0.25 0.12 
49 -0.07 0.02 0.16 
50 -0.19 -0.17 0.18 
51 -0.20 0.22 0.18 
52 -0.03 -0.16 -0.24 
53 -0.02 -0.14 0.11 
54 -0.21 0.19 0.14 
55 0.22 0.12 -0.17 
56 0.03 0.14 0.00 
57 -0.07 -0.08 -0.07 
58 -0.15 -0.17 0.12 
59 -0.14 -0.17 -0.15 
60 -0.18 0.14 -0.17 
61 0.14 0.07 -0.23 
62 0.07 0.18 0.10 
63 0.16 0.12 -0.06 
64 0.16 0.06 -0.03 
65 -0.13 0.20 0.17 
66 0.14 0.14 -0.04 
67 0.23 0.18 -0.02 
68 -0.24 -0.11 0.20 
69 0.17 -0.00 -0.19 
70 0.22 0.23 0.08 
71 0.09 -0.16 0.07 
72 0.23 -0.11 0.15 
73 -0.16 0.03 -0.07 
74 -0.18 -0.11 -0.23 
75 0.05 0.08 0.10 
76 0.08 0.04 -0.09 
77 0.05 0.09 -0.19 
78 0.11 -0.18 -0.24 
79 -0.03 -0.07 0.17 
80 -0.19 -0.10 -0.23 
81 0.14 0.20 -0.03 
82 0.08 -0.05 -0.19 
83 0.14 -0.11 -0.11 
84 -0.10 0.04 0.02 
85 0.02 -0.24 -0.17 
86 -0.23 0.11 0.08 
87 -0.22 -0.24 -0.00 
88 0.23 -0.21 -0.19 
89 0.23 -0.08 -0.01 
90 -0.12 0.22 0.04 
91 0.10 -0.23 0.16 
92 0.06 -0.09 0.17 
93 -0.05 0.12 -0.02 
94 -0.06 0.24 0.12 
95 0.06 -0.23 -0.21 
96 -0.07 0.08 -0.06 
97 -0.06 -0.05 -0.14 
98 0.10 0.18 -0.01 
99 0.24 0.03 -0.22 
100 -0.11 0.24 -0.05 
101 -0.25 0.18 -0.16 
102 -0.24 0.08 0.14 
103 -0.12 -0.19 0.19 
104 0.03 -0.17 -0.06 
105 -0.05 0.15 0.25 
106 -0.21 -0.20 0.13 
107 0.07 0.21 -0.15 
108 0.22 0.17 -0.01 
109 0.05 0.07 -0.19 
110 0.11 -0.06 -0.01 
111 0.16 -0.01 -0.00 
112 0.04 0.21 -0.24 
113 -0.13 0.03 -0.15 
114 -0.10 0.03 -0.13 
115 -0.15 0.06 0.22 
116 0.05 0.15 0.05 
117 0.04 0.17 -0.23 
118 -0.11 -0.03 0.03 
119 0.12 0.18 -0.07 
120 0.11 0.19 0.01 
121 0.21 0.21 0.03 
122 0.15 -0.15 -0.23 
123 0.24 -0.19 0.18 
124 -0.24 -0.24 -0.00 
125 0.13 0.08 -0.09 
126 0.14 0.20 0.11 
127 -0.02 0.21 -0.00 
128 0.23 -0.09 0.21 
129 -0.01 0.00 -0.04 
130 0.21 0.24 0.19 
131 0.02 -0.21 0.10 
132 -0.09 -0.06 0.16 
133 -0.01 -0.06 -0.22 
134 0.11 -0.10 -0.11 
135 -0.22 -0.25 -0.01 
136 -0.04 0.08 0.20 
137 -0.11 -0.20 0.24 
138 -0.25 -0.09 -0.04 
139 0.15 0.15 0.12 
140 0.00 0.10 0.03 
141 -0.05 0.11 0.08 
142 -0.08 0.11 -0.00 
143 0.22 0.19 0.12 
144 -0.09 -0.15 0.00 
145 0.20 0.19 -0.03 
146 -0.12 0.00 0.01 
147 0.23 -0.01 -0.13 
148 0.20 -0.24 0.04 
149 -0.15 0.24 -0.04 
150 -0.19 0.18 0.15 
151 0.07 0.21 -0.13 
152 -0.17 -0.13 0.14 
153 -0.22 -0.02 0.18 
154 0.18 0.18 0.04 
155 0.07 0.17 0.15 
156 0.24 0.09 0.23 
157 0.01 -0.03 0.10 
158 -0.14 -0.20 0.13 
159 0.13 -0.00 -0.25 
160 -0.14 -0.07 0.12 
161 0.19 -0.00 0.00 
162 -0.07 0.07 0.17 
163 -0.13 -0.12 -0.05 
164 -0.00 -0.19 -0.21 
165 0.14 -0.16 -0.16 
166 0.21 0.20 0.13 
167 0.09 0.14 -0.19 
168 -0.07 -0.12 -0.14 
169 0.02 0.15 -0.09 
170 0.17 0.10 0.14 
171 -0.13 -0.09 0.05 
172 0.17 0.22 -0.20 
173 0.23 -0.01 -0.13 
174 0.05 -0.07 -0.24 
175 -0.23 -0.22 0.07 
176 0.03 -0.13 -0.12 
177 -0.16 -0.10 -0.22 
178 0.09 0.13 -0.18 
179 -0.18 -0.12 -0.23 
180 -0.25 -0.07 0.18 
181 0.15 -0.12 -0.09 
182 -0.13 0.13 -0.03 
183 0.11 -0.17 -0.19 
184 0.08 -0.16 0.11 
185 0.04 0.17 0.01 
186 -0.00 -0.14 -0.13 
187 -0.14 -0.13 -0.20 
188 0.06 0.10 0.15 
189 -0.21 -0.21 -0.07 
190 -0.24 -0.02 -0.17 
191 -0.14 -0.05 0.25 
192 -0.07 0.17 -0.03 
193 -0.08 0.19 0.20 
194 0.07 -0.09 0.04 
195 -0.12 0.17 -0.00 
196 0.11 -0.02 0.13 
197 -0.05 0.11 0.14 
198 0.06 0.20 0.21 
199 -0.17 -0.10 0.23 
200 -0.25 0.08 -0.03 
201 0.24 -0.15 0.14 
202 -0.12 -0.10 0.05 
203 -0.05 -0.16 -0.18 
204 0.07 -0.06 0.03 
205 -0.23 0.07 0.24 
206 -0.16 0.21 0.16 
207 -0.20 0.15 -0.03 
208 -0.10 0.22 -0.17 
209 0.06 0.13 0.21 
210 -0.16 -0.14 0.12 
211 0.15 -0.20 0.08 
212 -0.10 0.25 -0.08 
213 0.05 -0.14 0.06 
214 -0.21 -0.10 -0.19 
215 -0.12 0.04 0.17 
216 0.01 0.11 0.13 

