1000
Atoms. Timestep: 0
A 0 0 0
B 0 0 2
A 0 0 4
A 0 0 6
B 0 0 8
A 0 0 10
A 0 0 12
A 0 0 14
B 0 0 16
B 0 0 18
A 0 2 0
B 0 2 2
A 0 2 4
A 0 2 6
B 0 2 8
B 0 2 10
A 0 2 12
B 0 2 14
B 0 2 16
B 0 2 18
B 0 4 0
A 0 4 2
B 0 4 4
B 0 4 6
B 0 4 8
B 0 4 10
B 0 4 12
B 0 4 14
A 0 4 16
B 0 4 18
A 0 6 0
B 0 6 2
B 0 6 4
B 0 6 6
B 0 6 8
B 0 6 10
B 0 6 12
B 0 6 14
B 0 6 16
A 0 6 18
B 0 8 0
B 0 8 2
A 0 8 4
A 0 8 6
A 0 8 8
B 0 8 10
A 0 8 12
B 0 8 14
B 0 8 16
B 0 8 18
A 0 10 0
A 0 10 2
A 0 10 4
B 0 10 6
B 0 10 8
A 0 10 10
A 0 10 12
B 0 10 14
B 0 10 16
A 0 10 18
B 0 12 0
B 0 12 2
B 0 12 4
A 0 12 6
B 0 12 8
B 0 12 10
A 0 12 12
B 0 12 14
B 0 12 16
A 0 12 18
A 0 14 0
B 0 14 2
B 0 14 4
A 0 14 6
B 0 14 8
B 0 14 10
A 0 14 12
A 0 14 14
B 0 14 16
A 0 14 18
B 0 16 0
A 0 16 2
A 0 16 4
B 0 16 6
B 0 16 8
B 0 16 10
A 0 16 12
B 0 16 14
B 0 16 16
A 0 16 18
A 0 18 0
A 0 18 2
B 0 18 4
B 0 18 6
B 0 18 8
B 0 18 10
B 0 18 12
A 0 18 14
B 0 18 16
B 0 18 18
B 2 0 0
A 2 0 2
A 2 0 4
A 2 0 6
A 2 0 8
B 2 0 10
A 2 0 12
A 2 0 14
B 2 0 16
A 2 0 18
A 2 2 0
A 2 2 2
B 2 2 4
B 2 2 6
A 2 2 8
A 2 2 10
A 2 2 12
B 2 2 14
A 2 2 16
A 2 2 18
A 2 4 0
A 2 4 2
B 2 4 4
B 2 4 6
A 2 4 8
A 2 4 10
B 2 4 12
A 2 4 14
A 2 4 16
A 2 4 18
B 2 6 0
B 2 6 2
B 2 6 4
A 2 6 6
A 2 6 8
A 2 6 10
B 2 6 12
A 2 6 14
A 2 6 16
A 2 6 18
A 2 8 0
B 2 8 2
A 2 8 4
A 2 8 6
A 2 8 8
A 2 8 10
B 2 8 12
B 2 8 14
A 2 8 16
A 2 8 18
B 2 10 0
B 2 10 2
A 2 10 4
A 2 10 6
A 2 10 8
B 2 10 10
B 2 10 12
A 2 10 14
B 2 10 16
B 2 10 18
B 2 12 0
A 2 12 2
B 2 12 4
A 2 12 6
A 2 12 8
B 2 12 10
B 2 12 12
A 2 12 14
B 2 12 16
A 2 12 18
B 2 14 0
A 2 14 2
A 2 14 4
A 2 14 6
A 2 14 8
B 2 14 10
B 2 14 12
B 2 14 14
B 2 14 16
B 2 14 18
B 2 16 0
B 2 16 2
A 2 16 4
A 2 16 6
B 2 16 8
A 2 16 10
B 2 16 12
B 2 16 14
B 2 16 16
B 2 16 18
B 2 18 0
A 2 18 2
B 2 18 4
A 2 18 6
B 2 18 8
B 2 18 10
B 2 18 12
A 2 18 14
A 2 18 16
B 2 18 18
B 4 0 0
B 4 0 2
A 4 0 4
B 4 0 6
B 4 0 8
B 4 0 10
A 4 0 12
A 4 0 14
A 4 0 16
A 4 0 18
A 4 2 0
B 4 2 2
A 4 2 4
A 4 2 6
B 4 2 8
B 4 2 10
A 4 2 12
B 4 2 14
A 4 2 16
A 4 2 18
A 4 4 0
A 4 4 2
B 4 4 4
B 4 4 6
B 4 4 8
A 4 4 10
B 4 4 12
A 4 4 14
A 4 4 16
B 4 4 18
A 4 6 0
B 4 6 2
B 4 6 4
B 4 6 6
A 4 6 8
A 4 6 10
B 4 6 12
A 4 6 14
A 4 6 16
B 4 6 18
A 4 8 0
B 4 8 2
B 4 8 4
B 4 8 6
B 4 8 8
A 4 8 10
B 4 8 12
B 4 8 14
A 4 8 16
A 4 8 18
A 4 10 0
B 4 10 2
A 4 10 4
B 4 10 6
A 4 10 8
B 4 10 10
B 4 10 12
A 4 10 14
B 4 10 16
B 4 10 18
A 4 12 0
A 4 12 2
B 4 12 4
B 4 12 6
A 4 12 8
A 4 12 10
A 4 12 12
A 4 12 14
B 4 12 16
B 4 12 18
B 4 14 0
B 4 14 2
B 4 14 4
B 4 14 6
B 4 14 8
B 4 14 10
A 4 14 12
A 4 14 14
A 4 14 16
B 4 14 18
A 4 16 0
B 4 16 2
A 4 16 4
A 4 16 6
A 4 16 8
A 4 16 10
B 4 16 12
B 4 16 14
A 4 16 16
A 4 16 18
B 4 18 0
B 4 18 2
A 4 18 4
A 4 18 6
A 4 18 8
A 4 18 10
A 4 18 12
A 4 18 14
B 4 18 16
A 4 18 18
B 6 0 0
B 6 0 2
B 6 0 4
A 6 0 6
B 6 0 8
A 6 0 10
B 6 0 12
A 6 0 14
B 6 0 16
A 6 0 18
B 6 2 0
B 6 2 2
A 6 2 4
A 6 2 6
B 6 2 8
B 6 2 10
A 6 2 12
B 6 2 14
A 6 2 16
B 6 2 18
B 6 4 0
A 6 4 2
A 6 4 4
B 6 4 6
A 6 4 8
A 6 4 10
A 6 4 12
B 6 4 14
A 6 4 16
A 6 4 18
B 6 6 0
B 6 6 2
B 6 6 4
B 6 6 6
A 6 6 8
B 6 6 10
A 6 6 12
A 6 6 14
A 6 6 16
A 6 6 18
A 6 8 0
A 6 8 2
A 6 8 4
A 6 8 6
B 6 8 8
A 6 8 10
B 6 8 12
A 6 8 14
A 6 8 16
B 6 8 18
A 6 10 0
A 6 10 2
B 6 10 4
A 6 10 6
A 6 10 8
A 6 10 10
A 6 10 12
B 6 10 14
A 6 10 16
A 6 10 18
B 6 12 0
A 6 12 2
B 6 12 4
A 6 12 6
B 6 12 8
A 6 12 10
B 6 12 12
A 6 12 14
B 6 12 16
A 6 12 18
A 6 14 0
B 6 14 2
B 6 14 4
A 6 14 6
B 6 14 8
B 6 14 10
A 6 14 12
B 6 14 14
B 6 14 16
B 6 14 18
A 6 16 0
A 6 16 2
B 6 16 4
B 6 16 6
B 6 16 8
B 6 16 10
B 6 16 12
B 6 16 14
A 6 16 16
B 6 16 18
B 6 18 0
A 6 18 2
B 6 18 4
B 6 18 6
A 6 18 8
A 6 18 10
A 6 18 12
A 6 18 14
A 6 18 16
A 6 18 18
B 8 0 0
B 8 0 2
B 8 0 4
A 8 0 6
B 8 0 8
B 8 0 10
B 8 0 12
B 8 0 14
B 8 0 16
A 8 0 18
B 8 2 0
A 8 2 2
A 8 2 4
B 8 2 6
B 8 2 8
B 8 2 10
A 8 2 12
B 8 2 14
B 8 2 16
B 8 2 18
B 8 4 0
B 8 4 2
A 8 4 4
A 8 4 6
A 8 4 8
B 8 4 10
A 8 4 12
B 8 4 14
A 8 4 16
A 8 4 18
B 8 6 0
B 8 6 2
B 8 6 4
A 8 6 6
A 8 6 8
A 8 6 10
A 8 6 12
B 8 6 14
A 8 6 16
A 8 6 18
A 8 8 0
A 8 8 2
A 8 8 4
A 8 8 6
B 8 8 8
A 8 8 10
B 8 8 12
B 8 8 14
A 8 8 16
A 8 8 18
B 8 10 0
B 8 10 2
B 8 10 4
B 8 10 6
A 8 10 8
A 8 10 10
B 8 10 12
A 8 10 14
B 8 10 16
A 8 10 18
B 8 12 0
B 8 12 2
B 8 12 4
A 8 12 6
B 8 12 8
B 8 12 10
B 8 12 12
A 8 12 14
A 8 12 16
B 8 12 18
B 8 14 0
A 8 14 2
A 8 14 4
A 8 14 6
A 8 14 8
A 8 14 10
A 8 14 12
A 8 14 14
A 8 14 16
B 8 14 18
A 8 16 0
B 8 16 2
A 8 16 4
A 8 16 6
A 8 16 8
A 8 16 10
B 8 16 12
A 8 16 14
A 8 16 16
A 8 16 18
A 8 18 0
B 8 18 2
A 8 18 4
B 8 18 6
B 8 18 8
B 8 18 10
B 8 18 12
B 8 18 14
B 8 18 16
B 8 18 18
A 10 0 0
B 10 0 2
A 10 0 4
B 10 0 6
B 10 0 8
A 10 0 10
A 10 0 12
B 10 0 14
B 10 0 16
B 10 0 18
A 10 2 0
B 10 2 2
B 10 2 4
A 10 2 6
B 10 2 8
A 10 2 10
B 10 2 12
A 10 2 14
A 10 2 16
A 10 2 18
B 10 4 0
A 10 4 2
A 10 4 4
B 10 4 6
A 10 4 8
B 10 4 10
A 10 4 12
B 10 4 14
B 10 4 16
A 10 4 18
B 10 6 0
B 10 6 2
B 10 6 4
A 10 6 6
A 10 6 8
A 10 6 10
A 10 6 12
B 10 6 14
A 10 6 16
A 10 6 18
B 10 8 0
A 10 8 2
B 10 8 4
B 10 8 6
A 10 8 8
B 10 8 10
A 10 8 12
B 10 8 14
A 10 8 16
B 10 8 18
B 10 10 0
B 10 10 2
A 10 10 4
B 10 10 6
B 10 10 8
B 10 10 10
A 10 10 12
A 10 10 14
A 10 10 16
B 10 10 18
B 10 12 0
B 10 12 2
B 10 12 4
A 10 12 6
A 10 12 8
A 10 12 10
B 10 12 12
A 10 12 14
B 10 12 16
A 10 12 18
B 10 14 0
A 10 14 2
B 10 14 4
A 10 14 6
B 10 14 8
B 10 14 10
A 10 14 12
B 10 14 14
B 10 14 16
A 10 14 18
B 10 16 0
A 10 16 2
A 10 16 4
B 10 16 6
B 10 16 8
B 10 16 10
A 10 16 12
B 10 16 14
A 10 16 16
B 10 16 18
A 10 18 0
B 10 18 2
B 10 18 4
A 10 18 6
A 10 18 8
A 10 18 10
A 10 18 12
B 10 18 14
B 10 18 16
A 10 18 18
A 12 0 0
A 12 0 2
B 12 0 4
A 12 0 6
B 12 0 8
B 12 0 10
A 12 0 12
B 12 0 14
B 12 0 16
B 12 0 18
A 12 2 0
A 12 2 2
A 12 2 4
A 12 2 6
B 12 2 8
A 12 2 10
B 12 2 12
A 12 2 14
B 12 2 16
A 12 2 18
B 12 4 0
A 12 4 2
A 12 4 4
B 12 4 6
A 12 4 8
B 12 4 10
B 12 4 12
B 12 4 14
B 12 4 16
A 12 4 18
B 12 6 0
A 12 6 2
B 12 6 4
B 12 6 6
A 12 6 8
B 12 6 10
A 12 6 12
A 12 6 14
B 12 6 16
A 12 6 18
B 12 8 0
A 12 8 2
B 12 8 4
B 12 8 6
B 12 8 8
A 12 8 10
A 12 8 12
A 12 8 14
B 12 8 16
B 12 8 18
A 12 10 0
A 12 10 2
A 12 10 4
A 12 10 6
B 12 10 8
B 12 10 10
B 12 10 12
A 12 10 14
B 12 10 16
A 12 10 18
B 12 12 0
B 12 12 2
B 12 12 4
B 12 12 6
B 12 12 8
A 12 12 10
A 12 12 12
A 12 12 14
A 12 12 16
B 12 12 18
B 12 14 0
A 12 14 2
B 12 14 4
A 12 14 6
A 12 14 8
B 12 14 10
B 12 14 12
B 12 14 14
B 12 14 16
A 12 14 18
B 12 16 0
A 12 16 2
A 12 16 4
B 12 16 6
B 12 16 8
A 12 16 10
B 12 16 12
B 12 16 14
A 12 16 16
B 12 16 18
B 12 18 0
A 12 18 2
B 12 18 4
A 12 18 6
B 12 18 8
B 12 18 10
B 12 18 12
A 12 18 14
A 12 18 16
B 12 18 18
A 14 0 0
A 14 0 2
A 14 0 4
B 14 0 6
B 14 0 8
A 14 0 10
B 14 0 12
A 14 0 14
A 14 0 16
B 14 0 18
B 14 2 0
A 14 2 2
A 14 2 4
B 14 2 6
B 14 2 8
A 14 2 10
A 14 2 12
B 14 2 14
B 14 2 16
B 14 2 18
A 14 4 0
A 14 4 2
B 14 4 4
B 14 4 6
A 14 4 8
A 14 4 10
B 14 4 12
B 14 4 14
A 14 4 16
B 14 4 18
B 14 6 0
A 14 6 2
B 14 6 4
B 14 6 6
A 14 6 8
B 14 6 10
A 14 6 12
A 14 6 14
A 14 6 16
A 14 6 18
A 14 8 0
A 14 8 2
A 14 8 4
A 14 8 6
A 14 8 8
B 14 8 10
A 14 8 12
B 14 8 14
B 14 8 16
B 14 8 18
B 14 10 0
A 14 10 2
A 14 10 4
A 14 10 6
A 14 10 8
B 14 10 10
B 14 10 12
A 14 10 14
B 14 10 16
A 14 10 18
B 14 12 0
B 14 12 2
A 14 12 4
B 14 12 6
A 14 12 8
B 14 12 10
A 14 12 12
A 14 12 14
B 14 12 16
A 14 12 18
B 14 14 0
B 14 14 2
B 14 14 4
B 14 14 6
B 14 14 8
A 14 14 10
B 14 14 12
B 14 14 14
B 14 14 16
B 14 14 18
A 14 16 0
B 14 16 2
A 14 16 4
B 14 16 6
B 14 16 8
A 14 16 10
B 14 16 12
B 14 16 14
B 14 16 16
A 14 16 18
A 14 18 0
A 14 18 2
A 14 18 4
B 14 18 6
B 14 18 8
B 14 18 10
A 14 18 12
B 14 18 14
B 14 18 16
A 14 18 18
A 16 0 0
A 16 0 2
B 16 0 4
A 16 0 6
A 16 0 8
A 16 0 10
A 16 0 12
B 16 0 14
A 16 0 16
B 16 0 18
A 16 2 0
A 16 2 2
B 16 2 4
B 16 2 6
B 16 2 8
A 16 2 10
A 16 2 12
B 16 2 14
B 16 2 16
B 16 2 18
B 16 4 0
A 16 4 2
B 16 4 4
A 16 4 6
B 16 4 8
A 16 4 10
B 16 4 12
B 16 4 14
A 16 4 16
A 16 4 18
B 16 6 0
B 16 6 2
B 16 6 4
B 16 6 6
A 16 6 8
B 16 6 10
B 16 6 12
B 16 6 14
A 16 6 16
B 16 6 18
B 16 8 0
A 16 8 2
B 16 8 4
A 16 8 6
B 16 8 8
B 16 8 10
B 16 8 12
B 16 8 14
A 16 8 16
B 16 8 18
B 16 10 0
B 16 10 2
A 16 10 4
A 16 10 6
A 16 10 8
B 16 10 10
A 16 10 12
B 16 10 14
A 16 10 16
A 16 10 18
A 16 12 0
A 16 12 2
A 16 12 4
A 16 12 6
B 16 12 8
B 16 12 10
A 16 12 12
A 16 12 14
A 16 12 16
A 16 12 18
A 16 14 0
A 16 14 2
A 16 14 4
A 16 14 6
B 16 14 8
B 16 14 10
B 16 14 12
A 16 14 14
B 16 14 16
A 16 14 18
A 16 16 0
B 16 16 2
B 16 16 4
A 16 16 6
A 16 16 8
A 16 16 10
A 16 16 12
A 16 16 14
B 16 16 16
B 16 16 18
B 16 18 0
B 16 18 2
B 16 18 4
A 16 18 6
B 16 18 8
B 16 18 10
A 16 18 12
A 16 18 14
B 16 18 16
A 16 18 18
A 18 0 0
B 18 0 2
B 18 0 4
A 18 0 6
A 18 0 8
B 18 0 10
B 18 0 12
A 18 0 14
B 18 0 16
B 18 0 18
B 18 2 0
A 18 2 2
B 18 2 4
B 18 2 6
A 18 2 8
B 18 2 10
A 18 2 12
B 18 2 14
A 18 2 16
B 18 2 18
A 18 4 0
B 18 4 2
A 18 4 4
B 18 4 6
A 18 4 8
B 18 4 10
A 18 4 12
B 18 4 14
B 18 4 16
A 18 4 18
A 18 6 0
A 18 6 2
B 18 6 4
A 18 6 6
A 18 6 8
A 18 6 10
A 18 6 12
A 18 6 14
B 18 6 16
A 18 6 18
A 18 8 0
A 18 8 2
A 18 8 4
B 18 8 6
A 18 8 8
B 18 8 10
A 18 8 12
A 18 8 14
A 18 8 16
A 18 8 18
B 18 10 0
A 18 10 2
A 18 10 4
A 18 10 6
B 18 10 8
B 18 10 10
A 18 10 12
A 18 10 14
A 18 10 16
B 18 10 18
A 18 12 0
B 18 12 2
B 18 12 4
A 18 12 6
B 18 12 8
B 18 12 10
B 18 12 12
B 18 12 14
B 18 12 16
A 18 12 18
A 18 14 0
A 18 14 2
A 18 14 4
B 18 14 6
B 18 14 8
B 18 14 10
B 18 14 12
A 18 14 14
A 18 14 16
A 18 14 18
B 18 16 0
A 18 16 2
A 18 16 4
B 18 16 6
B 18 16 8
A 18 16 10
A 18 16 12
B 18 16 14
B 18 16 16
A 18 16 18
A 18 18 0
A 18 18 2
A 18 18 4
B 18 18 6
A 18 18 8
B 18 18 10
A 18 18 12
B 18 18 14
A 18 18 16
A 18 18 18
1000
Atoms. Timestep: 1
A 19.9996 19.9995 19.999
B 0.000449197 19.9993 1.99945
A 0.00125222 0.000152216 4.001
A 0.0009 19.999 5.9997
B 0.00015 19.9996 8.0005
A 0.001 0.00025 10.0003
A 5.22156e-05 19.9994 12.0005
A 0.00035 19.9989 14.0004
B 0.00065 0.00065 15.9994
B 19.9999 19.9996 18.0001
A 0.000902216 1.9988 0.0001
B 0.00085 1.99935 2.0009
A 19.9988 2.00045 4.00015
A 0.0003 1.99895 6.0005
B 0 1.9991 7.99925
B 19.9996 1.9993 9.9997
A 19.9998 2.00045 11.9988
B 19.9994 2.0011 13.9999
B 19.9998 1.99935 16.0008
B 0.000349197 1.99895 17.9995
B 19.9996 3.9996 0.000299197
A 0.000552216 4.0008 1.99955
B 0.000800803 4.00035 4.00085
B 0 4.00005 5.99895
B 19.9997 4.0002 8.00115
B 19.9996 3.99915 9.99895
B 19.9996 4.00065 12.0006
B 19.9998 3.9995 14.001
A 19.9989 3.9992 16.0008
B 19.9991 4.0011 18.0002
A 0.000597784 5.99945 0.000197784
B 0.000650803 5.9999 2.00085
B 0.00075 6.00095 4.0008
B 0.0002 5.9996 6.00005
B 19.9992 6.001 7.9997
B 19.999 6.00015 10.0002
B 19.9994 5.99935 11.9994
B 19.9994 6.00065 14.0001
B 9.91968e-05 6.00085 16.0008
A 19.9989 5.99965 18.001
B 0.001 7.9989 19.9996
B 19.9994 7.99905 1.9996
A 19.9993 8.0009 4.0006
A 19.9989 7.9988 6.00115
A 0.00065 8.0012 8.00055
B 0.000599197 7.99975 9.9995
A 0.000947784 8.0006 12
B 0.000300803 7.99895 13.9996
B 0.00075 7.99985 16.0006
B 19.999 8 17.9991
A 19.9997 10.0013 19.9993
A 0.000747784 9.999 2.0006
A 0.00015 9.99885 3.9988
B 0.0011 9.99995 5.99885
B 0.0011492 9.9993 7.9989
A 19.9991 9.99905 10.0006
A 19.9994 9.99955 12.0001
B 19.9998 10 14.0012
B 19.9999 10.0006 15.9989
A 19.9998 9.9991 17.9994
B 19.9995 11.9993 0.000550803
B 19.9997 12.0005 1.9999
B 19.999 12.0012 4
A 0.0004 12.0001 5.9995
B 19.9995 11.9993 8.00085
B 0.0001 12.0006 9.99965
A 0.00125 11.9999 12.001
B 19.9997 11.9996 14.0003
B 19.9997 11.9998 15.9999
A 0.0004 12.0013 18.0011
A 0.00114778 14.0012 0.000647784
B 0.0011 14 2.00125
B 0.001 13.9995 4.0007
A 19.9999 14.001 6.0009
B 0.000749197 13.9995 8.0009
B 19.9997 13.9997 10.0007
A 19.9998 13.9991 11.9993
A 0.000847784 14.0007 13.9994
B 0.000450803 13.9999 16.0002
A 19.9993 14.0002 18.0006
B 0.0011 16.0011 19.9992
A 19.999 16.0002 2.0002
A 19.9995 15.9999 3.9998
B 0.000949197 16.0001 6.00065
B 19.9988 15.9994 7.99885
B 0.0007 15.9998 9.9998
A 19.9995 15.999 11.9999
B 0.0002 16.0004 13.9996
B 19.9993 16.001 16.0003
A 0.000597784 16.001 18.0009
A 0.000347784 18.0002 0.000952216
A 0.0001 18.0005 2.0005
B 0.000850803 17.9999 4.00075
B 0.000149197 17.9997 6.0001
B 0.000150803 17.999 7.9988
B 19.9991 17.9995 10.0012
B 0.000250803 17.9994 12.0011
A 0.000152216 17.9991 13.9994
B 0.00125 18.0006 16.0012
B 19.9988 18 17.9993
B 2.0004 0.000149197 0.00115
A 2.0009 19.9993 2.0001
A 2.00005 19.9996 4.0006
A 2.00095 19.9999 5.99915
A 1.99945 19.9988 7.99995
B 1.9988 19.9998 10.0003
A 1.9998 0.000202216 11.999
A 1.9993 19.9998 14.0012
B 2.00115 19.9998 16.0005
A 1.99925 19.9991 18.0007
A 1.9991 1.99925 19.9999
A 1.9991 1.99915 2.0003
B 2.001 1.99905 4.0002
B 2.00115 1.9996 6.00065
A 2.00075 2.0011 8.00045
A 1.9998 2.00105 9.99925
A 1.99895 2.0005 12.0002
B 1.9994 1.9988 14.0001
A 1.99985 2.0009 15.9989
A 2.0008 1.9993 17.9998
A 1.99975 4 19.9999
A 1.99995 3.99915 2.00125
B 2 3.9995 3.99935
B 1.99995 4.00075 6.00065
A 1.9992 3.99905 7.9995
A 1.9989 4.00045 9.99905
B 1.99965 4.00065 12.0011
A 2.00055 3.9995 14.0003
A 2.0005 3.99975 15.9988
A 1.99935 3.99955 18.0004
B 2.00035 6.0005 0.000800803
B 1.99965 6.00115 2.00085
B 1.9991 6.00095 3.9999
A 1.9997 6 6.00075
A 1.99905 6.00085 7.99975
A 2.0001 6.00065 9.9994
B 1.9997 6.00075 12.0009
A 2.00105 5.99935 14.0006
A 1.9991 6.00055 16.0003
A 2.00045 6.00125 17.9989
A 1.999 7.99885 0.000897784
B 1.9991 7.99895 2.00005
A 1.99925 7.99905 4.0001
A 1.9997 7.9989 6.0006
A 2.00095 7.9994 7.9993
A 1.99985 8.00015 10.0003
B 2.0008 8.001 12
B 1.99955 7.9992 14.0001
A 2.0002 8.0009 16.0007
A 1.999 7.9994 18.0008
B 2.00085 10.0012 0.0001
B 1.9995 10.0012 1.9992
A 2.00115 10.0007 4.00035
A 1.9996 10.0007 6.001
A 1.9994 9.9988 7.99975
B 2.00025 10.0001 9.9991
B 2.00005 9.99995 12.0007
A 2.0005 9.9989 13.9999
B 1.9997 10.0002 15.9989
B 1.9998 10.0002 17.9994
B 1.99895 12.0004 0.0002
A 2.0009 12.0009 1.9994
B 1.99915 12.0001 4
A 1.99995 12.0008 6.0008
A 1.9989 12.0007 8.0006
B 1.9998 12.0008 10.0007
B 1.9989 12.0006 11.9992
A 1.99935 12.0008 14.0009
B 1.99935 11.9993 16.0005
A 2.001 12.0006 18.001
B 1.9993 13.9993 19.9987
A 1.99955 14.0003 1.99995
A 2.001 13.9999 3.9999
A 2.0002 13.9997 5.999
A 1.99945 13.9999 7.9989
B 2.00025 14.0008 10.0003
B 1.9996 14 11.9995
B 2.0001 13.9989 13.9991
B 1.99945 13.9994 15.9997
B 1.9997 13.9997 18.0004
B 1.9994 15.9991 19.9998
B 2.0001 16.0002 2.0012
A 1.99945 16.0004 4.00055
A 1.99925 16.0002 5.9993
B 2.0004 15.9999 8.001
A 2.00025 16.001 10.0004
B 2.0007 15.999 11.999
B 1.99925 16.0005 13.9995
B 1.99935 16.0009 16.001
B 2.00125 15.9998 17.9996
B 2.00075 17.9993 0.000149197
A 1.9988 17.9998 2.00025
B 1.99935 18.001 4
A 2.00085 18.001 5.99905
B 1.9998 17.9992 7.9994
B 1.99945 18.0009 10.0005
B 1.99925 18.0005 11.9999
A 2.00065 18.0001 14.0008
A 2.0009 17.9996 16.0006
B 2.0005 18.0009 17.9994
B 4.001 19.9998 0.0011008
B 3.9995 0.00025 2.00065
A 3.99995 0.00105 3.9991
B 3.9998 19.9992 5.999
B 3.99925 19.9995 8.00025
B 3.99915 19.9998 9.9993
A 3.9999 19.999 12.0011
A 3.9999 19.999 14.0008
A 4.00005 0.000602216 16.0008
A 4.0007 19.9989 17.9989
A 3.99985 2.00005 0.000147784
B 3.9994 2.00095 1.9999
A 4.00105 1.99885 4.00005
A 3.9997 1.9997 5.99895
B 4.0008 1.99945 8.0004
B 3.99985 1.9994 9.9997
A 4.00005 1.999 12.0004
B 3.99955 1.99935 14.0007
A 4.00025 2.00045 16.0001
A 3.99895 1.9989 17.9998
A 3.9993 3.99905 19.9991
A 4.0005 4.0004 1.99885
B 3.99935 4.0001 4.0007
B 4.0002 4 5.9993
B 3.9997 3.99895 7.9998
A 4.00085 3.9996 9.9992
B 4.00035 4.00005 12.0003
A 3.9995 3.99885 14
A 4.00005 4.00075 16.0012
B 3.9992 4.0006 17.999
A 4.0006 6.0005 19.9998
B 3.99925 5.99975 1.9996
B 3.99975 6 4.0011
B 3.9993 5.99985 6.00005
A 4.00025 5.9991 7.9997
A 3.99905 5.99885 10
B 4.0008 5.99935 12.0012
A 3.999 6.0002 14.0008
A 3.99975 5.9997 15.9996
B 4.00035 5.99965 17.9998
A 3.9991 7.9993 0.000797784
B 4.00085 7.99975 1.99965
B 4.00075 8.0003 4.00005
B 3.99995 8.0005 5.999
B 4.00015 8.00055 8.0009
A 3.9993 8.00115 10.0008
B 4.0011 7.99995 12.0004
B 4.00105 7.9994 13.9995
A 4.00025 8.00095 15.9998
A 4.0008 8.00045 17.9996
A 3.99975 9.99995 19.9995
B 4.00035 10.001 1.9992
A 4.0011 10.0005 3.9991
B 4.00035 9.99895 5.9993
A 4.0004 10.0003 7.99875
B 4.0003 9.99905 9.99885
B 3.99895 10.0011 12.0002
A 4.0008 9.99945 13.9996
B 4.00075 9.99915 16.001
B 4.0006 9.9995 17.9993
A 4.00035 11.9989 0.000652216
A 4.00025 11.999 1.9989
B 3.9995 12.0004 3.99975
B 3.99965 12.0009 6.0001
A 4.0011 12.0012 7.9994
A 4.00065 12.0012 10.001
A 4.00015 11.9988 12.0005
A 3.99905 12.0001 14.0008
B 3.9999 12.0006 15.9988
B 4.0002 11.9991 18.0005
B 3.99935 14.0008 0.00015
B 4.00095 14.0002 2.0008
B 4.00045 13.9997 4.00105
B 3.99925 13.9988 6.0007
B 3.9988 13.9995 7.9998
B 4.00125 13.9988 9.99935
A 4.0003 14.0011 11.9992
A 3.99915 13.9989 13.999
A 4.0002 13.9996 15.9998
B 4.00125 13.999 17.9992
A 3.9989 16.0011 19.999
B 3.9996 16.0001 2.00095
A 4.0003 16.0001 4.00095
A 4.0008 16.0005 5.9993
A 3.9992 16 8.00105
A 3.9993 15.9993 9.999
B 4.00095 16.0004 11.9999
B 4.00075 16.0011 14.0005
A 4.0005 16.0001 16.0012
A 4.00065 16.0004 18.0007
B 3.99925 18.0006 0.0010508
B 4.00085 17.9999 1.99905
A 3.9988 17.9994 3.99895
A 3.9997 17.9998 6.0005
A 3.99975 17.9998 8.0002
A 4.00065 18.0009 10.0006
A 3.99995 18.0001 12.0011
A 3.9994 17.9996 14.001
B 4.0004 18.0008 16.0005
A 4.0008 17.9992 17.999
B 5.9992 19.999 19.9997
B 5.9994 19.999 1.99955
B 5.9999 19.9998 4.0008
A 5.99995 19.9993 6.00015
B 5.9996 0.000500803 8.00015
A 6.00055 19.9993 9.9989
B 6.00085 19.9992 12.0001
A 6.001 19.9999 14.0003
B 6.00005 19.9993 16
A 5.9991 0.00104778 18
B 6 2.001 0.0005
B 6.00045 2.0011 1.99995
A 5.99885 1.9997 3.99995
A 5.99975 1.9988 5.99965
B 5.99965 2.0009 7.99975
B 6.00075 1.99975 10.001
A 5.9994 1.99965 11.9988
B 6 1.99945 14.0002
A 6.00085 1.99885 15.9987
B 5.99955 2.00075 18
B 5.99885 4.00085 0.0009
A 5.999 3.99985 1.9988
A 6.00125 4.00025 3.9988
B 6.0011 4.00025 6.0008
A 6.00105 3.9993 7.99945
A 6.00035 4.0008 10.0004
A 5.9999 4.001 11.9993
B 5.99985 3.99915 13.9993
A 6.0009 4.0006 16.0007
A 5.99965 4.00085 17.9991
B 6.0012 5.9996 19.9996
B 6.001 5.999 2.00045
B 5.9988 6.00005 3.9993
B 5.99985 6.00005 5.99935
A 5.99955 6.0009 8.00065
B 6.00095 5.99995 10.0006
A 5.99875 6.0008 12.0008
A 5.9995 5.99945 13.9991
A 6.00095 6.00045 15.9992
A 6.0002 5.99945 17.9993
A 6.00065 7.99925 19.9991
A 5.9988 7.99935 1.9995
A 6.0005 7.9997 4.0005
A 5.99935 7.9995 5.99975
B 5.99975 7.99945 8.0009
A 6.0005 8.00015 9.99975
B 5.99925 8.0006 12.0002
A 6.0005 8.00005 14.0001
A 5.99885 7.9996 16.0002
B 5.99995 8.00015 17.9995
A 5.99905 10.0011 0.00075
A 5.99935 10.0005 2.00045
B 5.99895 9.99925 4.00045
A 6.00035 9.9995 6.00055
A 5.99905 10 7.99965
A 5.9989 9.9998 9.99995
A 5.99985 10.0006 12.0008
B 6.00125 10.0001 14.0003
A 6.00075 10.0003 16.001
A 6.0009 9.99875 17.9989
B 5.99915 11.9992 0.00105
A 5.99985 12.0011 1.99895
B 6.00065 12 4.0002
A 6.0001 12.0011 5.99925
B 5.99985 11.9998 7.99925
A 6.0001 12.0008 10.0008
B 6.0004 11.9988 12.0001
A 5.9998 12.0002 13.9988
B 5.99925 11.9992 15.9997
A 6.00065 11.9992 18.0009
A 5.99995 14.0003 19.9997
B 6.00025 14.0007 1.9996
B 5.9992 13.9987 3.99945
A 6.0002 13.9994 5.99895
B 5.99905 14.0005 8.00065
B 6 14.0004 10
A 5.9997 13.9992 12.0012
B 6.00105 14.0004 13.9993
B 6.0004 13.9993 15.9998
B 5.99895 14.0006 18.0001
A 6.0008 16.0008 0.000352216
A 5.99925 16.001 2.00055
B 6.0006 15.9992 3.9998
B 6.0001 15.9993 5.9995
B 6.0012 15.9999 8.0001
B 5.9994 15.9992 10.0009
B 5.999 15.9994 12
B 5.9997 16.0004 13.9996
A 5.9988 15.9992 15.9997
B 5.99905 15.9994 18.0011
B 5.9991 17.999 19.9997
A 6.00065 17.9993 2.00095
B 6.0007 18.0001 3.99975
B 5.99905 18.0008 5.99895
A 5.9991 18.001 8.0007
A 5.9993 18.0004 9.9988
A 5.9992 18.0005 11.9999
A 6.0011 17.9999 14.0011
A 5.99935 17.9996 15.9998
A 5.9997 17.9991 18.0012
B 8.0003 0.000550803 19.9994
B 8.00075 0.000899197 2.0011
B 7.99955 19.9998 4.00005
A 8.0011 19.9994 6.00075
B 8.00115 19.9998 8.001
B 7.99895 0.00105 10.0012
B 7.9994 19.9999 11.9998
B 7.9992 0.00045 13.9988
B 7.99925 0.0002 16.0005
A 8.001 0.00055 17.9993
B 8.0001 2.00035 0.000599197
A 8.0005 2.00015 2.00115
A 8.0003 2.0006 4.0006
B 7.99885 2.00005 6.0006
B 7.99895 2.00015 7.99875
B 7.99955 1.999 10.0004
A 7.9988 2.0001 11.9989
B 8.00035 1.9999 14.0011
B 8.0008 2.00035 16.0002
B 8.0008 2.0009 18.0003
B 7.99925 4.001 0.000150803
B 7.99895 3.9996 2.00115
A 7.9999 4.00075 4.00065
A 7.99955 3.99955 6.0001
A 8.0007 3.9997 8.00115
B 7.99905 3.99885 9.99925
A 7.99975 4.0009 12.0008
B 7.99985 4.001 13.9993
A 8.001 4.00115 16.0002
A 8.0011 4.0007 17.9993
B 8.0005 6.00095 19.9998
B 8.00085 6.00105 2.00075
B 8.00015 5.9999 4.00105
A 7.9996 6.00115 6.00125
A 7.99915 5.9995 8
A 8.00105 6.0011 9.99935
A 8.00015 6.0002 12.0004
B 8.0011 5.99925 14.0002
A 7.9995 5.99915 15.9998
A 8.001 5.999 17.9993
A 7.99925 8.00085 19.9988
A 7.99895 8.00065 2.00065
A 7.99925 7.99885 3.99965
A 8.0004 7.9991 6.00015
B 7.99895 7.9998 8.0011
A 8.00075 8.0012 10.0008
B 7.999 7.99965 11.9988
B 7.9989 8.0012 14.0002
A 8.0003 7.99915 16.0004
A 7.99995 8.0004 17.9992
B 8.0001 10.0006 8.03216e-07
B 8.0005 9.9995 1.99955
B 7.9988 10.0011 3.99935
B 7.99955 9.9996 6.00005
A 7.9997 10.0009 7.9995
A 7.9998 10 10.0009
B 7.9992 10.0011 12.0011
A 8.0002 10.001 14.0008
B 7.99955 10.0001 16
A 7.9991 10.0003 17.9995
B 7.99885 11.9997 19.9999
B 7.99965 11.9996 2.0003
B 8.00015 11.9992 4.0003
A 7.99975 12.0004 6.00025
B 7.99905 11.9993 7.99885
B 8.00035 11.9991 9.99985
B 7.99885 12 11.9999
A 8.00065 12 13.9999
A 7.9992 12.0009 16.0009
B 7.9994 12 17.9998
B 7.9994 14.0002 19.9988
A 7.9989 14.0002 1.99945
A 8.00115 14.001 4.0003
A 8.00095 13.9999 5.9989
A 8.0008 14.0008 7.9991
A 8.0008 13.9993 9.99925
A 8.00075 13.9991 12.0002
A 7.9999 14.0002 14.0007
A 8.00025 14.0001 15.9999
B 8.00025 14.0005 18.0008
A 7.9997 15.999 0.000797784
B 7.99915 15.9997 2.00025
A 8.0009 16.001 4.00035
A 8.00055 15.9989 6.0003
A 8.00005 15.999 8.00045
A 8.00105 16.0007 10.0012
B 8.0006 16.0004 12.0012
A 8.0004 16.0009 13.9997
A 7.99975 16.0003 16.0008
A 7.9995 15.9992 17.9992
A 8.00125 17.9993 19.9999
B 8.00005 18.0008 2.00095
A 8.0009 18.0005 3.9992
B 7.99945 18.0007 5.99965
B 7.9999 17.9988 7.99975
B 8.00015 18.0007 9.99985
B 7.99965 18.0011 11.9999
B 7.99965 17.9996 13.9992
B 8.0005 18.0001 16.0012
B 7.99905 17.9988 18.0001
A 9.99985 0.0001 0.00115
B 10.0011 19.9995 1.9993
A 10.0012 0.00105 4.0008
B 9.99975 0.001 5.9997
B 9.99965 19.9991 8.0001
A 9.99905 19.9997 9.99875
A 10.001 0.000797784 11.9995
B 9.9997 19.9987 14.0003
B 9.9994 19.9995 16.0003
B 9.9994 19.9988 18.0005
A 9.99955 1.9994 0.000247784
B 10.0002 2.00115 1.999
B 9.999 2 3.9991
A 10.0009 1.9998 5.99985
B 9.9999 1.99965 7.99985
A 9.99995 1.9989 9.99875
B 9.9995 2.00025 11.9995
A 9.9999 2.00065 14.001
A 9.9995 2.00065 16.0009
A 10.0011 1.99945 17.9999
B 10.0011 4.00075 19.9994
A 10.0005 3.99895 1.9992
A 9.9991 4.00115 3.99995
B 10.0003 3.9989 6.00035
A 10.0007 3.99975 7.99935
B 9.99995 4.00055 10
A 10.0003 4.0012 11.9998
B 9.999 3.99935 13.9992
B 9.99935 4.0002 16
A 10.001 3.99915 18.0006
B 9.999 6.00095 19.9999
B 10.0004 6.0012 1.99935
B 9.9996 6.0011 4.0009
A 9.999 5.9998 5.99915
A 9.99945 6.00035 8.0002
A 9.99955 6.0007 9.99965
A 10.001 5.99985 12.0011
B 10 5.9999 14.001
A 10.0011 5.99915 15.9999
A 9.99895 6.00085 17.9996
B 10.0009 8.0008 20
A 10 7.99875 1.9996
B 10.0002 8.00095 3.99925
B 10.0003 7.99875 5.99885
A 10.0007 7.9999 7.9992
B 9.99875 8.0008 9.99965
A 10.0005 8.00005 11.9999
B 10.001 8.0011 14.0009
A 10.0009 8.00095 16.0004
B 10.0001 8.0007 18.0012
B 10.0002 10.0012 0.0006
B 10.0001 10.0007 1.9991
A 10.0008 10.0006 3.99935
B 10.0011 10.0008 6.00055
B 9.9996 10 8.0009
B 9.99955 10.0004 9.99915
A 10.0008 9.9997 11.9996
A 9.9994 9.99965 14.0006
A 10 10.0004 16.0005
B 10 10.0002 18.001
B 9.9999 12.0009 0.000350803
B 9.9991 11.9996 1.99925
B 9.9998 11.9999 3.9996
A 10.0004 12 6.0002
A 9.9992 12.0005 8.0009
A 10.0007 12.0003 10.0004
B 9.99975 11.9998 11.9995
A 10.0012 12.0009 14.0009
B 10.0009 12.0003 15.9993
A 9.9989 12.0002 18.0012
B 10.0001 13.999 0.00105
A 10.0008 14.0009 2
B 10.0009 13.9995 4.00095
A 9.9998 14 5.99875
B 9.99925 13.9992 7.99925
B 10.0001 14.0011 9.99915
A 10.0011 13.9989 12.0008
B 9.9989 13.9994 14
B 9.99905 13.999 15.9989
A 10.0007 13.999 18.0006
B 10.0004 15.9998 0.0011492
A 10.0003 16.0003 2.0012
A 10.0012 16.0004 3.999
B 10.0003 15.9994 6.0008
B 9.9996 16.0003 7.99995
B 10.001 15.9989 9.9999
A 9.9993 16.0003 11.9992
B 10.0001 16.0005 13.9994
A 9.9998 16.0001 16.0003
B 10.0008 15.999 17.9993
A 10.0001 17.9991 0.00104778
B 9.9996 18.0001 2.00065
B 10.0004 17.9989 4.00045
A 10.001 17.9992 6.00105
A 10.0002 17.9998 7.99925
A 9.99945 18 10.0001
A 9.99915 18.0009 11.9997
B 10.0011 18.0007 14.0009
B 10.0008 17.9999 16.0007
A 9.9989 18.0006 18.0008
A 11.9992 0.000202216 19.9997
A 12.0006 19.9991 2.0007
B 11.9993 0.0012492 3.99995
A 12.0002 19.9991 5.99945
B 12 0.00125 7.9991
B 11.9994 0.000849197 9.9988
A 12.0009 0.00055 12.0005
B 11.9995 0.0005 13.999
B 11.9989 0.000150803 16
B 12.0001 19.9989 18.0005
A 11.9997 2.0006 19.9989
A 12.0007 1.99975 1.9998
A 12.001 1.99995 4.00115
A 11.9991 2.0012 6.00025
B 11.9988 1.99995 8.0004
A 12.0002 1.99925 10.0008
B 12.0003 1.99905 12.0008
A 12.0008 1.99915 13.999
B 11.9998 2.00085 15.9995
A 11.9999 2 18.0003
B 11.9992 3.9996 0.0009
A 11.9992 3.99935 1.99915
A 12.0006 4.0003 4.00055
B 11.999 3.99955 5.9999
A 11.9997 4.00065 7.99935
B 11.9996 4.00095 9.99945
B 11.9988 4.00015 12.0006
B 12.0008 4.0012 14.0005
B 11.9993 4.0001 15.9996
A 12.001 4.00125 17.9998
B 11.9995 5.999 19.9989
A 12.0008 5.99895 1.9992
B 12.0006 6.00015 3.99935
B 11.9993 6.0007 6.00115
A 11.9995 5.999 7.99925
B 11.999 5.99895 9.99995
A 11.9995 5.9999 11.999
A 11.999 5.99985 13.9996
B 11.9992 5.999 15.9997
A 11.9993 5.9993 18.0007
B 12.0011 8.00025 19.9988
A 12.0002 7.99915 1.9997
B 11.9988 7.9988 3.9991
B 12.0011 8.0003 5.999
B 11.9999 8.00095 8.0005
A 12.0008 8.00055 9.9991
A 12.0006 8.00085 12.0005
A 12.0007 8.0012 13.9996
B 12.0005 8.00055 15.9989
B 11.9994 7.99955 18.0001
A 12.0003 9.99965 0.00075
A 12.0002 10 2.00045
A 11.999 9.99955 4.00095
A 11.9991 9.99955 5.99935
B 11.9994 10.0006 8.00085
B 11.9988 9.99895 9.99895
B 11.9994 10.0004 11.9997
A 11.999 9.99935 13.9991
B 12.0007 9.9996 16.0007
A 11.9991 9.99995 17.9994
B 11.9997 12.0005 19.9999
B 11.9995 12 1.9989
B 12.0002 11.9996 4.00075
B 12.0003 12.0003 5.9995
B 11.9994 11.9997 8.0001
A 12.0007 12.0009 9.999
A 11.9988 11.9989 12.0001
A 12.0008 12.0011 13.9992
A 12.0001 11.9991 15.9995
B 12.0012 12.0003 18.0007
B 12 14.0009 0.00125
A 11.9995 14 2.0007
B 12.0012 14.0006 4.0009
A 12.0004 14 6.0009
A 12.0003 13.9988 8.0004
B 11.9988 13.9992 9.9997
B 11.9988 13.9998 12.0006
B 12.0012 14 14.0003
B 12.001 14.0004 15.9998
A 12.0008 14.0007 17.9988
B 11.9992 15.9991 19.9993
A 11.9998 16.0008 2.00015
A 12.0012 15.9996 4.0003
B 12.0007 15.9999 6.00125
B 12.0005 16.0003 8.0009
A 12.0009 15.9991 10.0012
B 11.9994 16.0001 12.0008
B 12.0012 15.9989 14.0006
A 11.9999 16.0003 16
B 12.0001 15.999 17.9992
B 11.999 17.9988 19.9993
A 12.0002 17.9991 2.0008
B 11.9998 18.0001 4.00025
A 11.9991 17.9999 6.00095
B 12.0012 18.0012 7.9994
B 11.9999 18.0003 10.0001
B 11.9995 17.9999 11.9988
A 12.0002 17.9992 14
A 11.999 17.9987 15.9988
B 11.9992 17.9995 18.0009
A 14.0008 19.9996 19.9991
A 13.9998 19.9992 1.9989
A 13.9992 19.999 3.9988
B 14.0013 0.0009 6.00125
B 13.9998 19.9998 7.9999
A 13.9996 0.000152216 10.0003
B 14.0005 0.00125 11.9987
A 14.0012 19.9992 14.001
A 14.0001 0.0003 15.9996
B 14.0009 0.000400803 17.9992
B 14.0002 1.9991 19.9988
A 14.0002 2.00005 2.00005
A 13.9989 2.00085 4.0011
B 14.0006 2.00045 6
B 13.9992 1.9991 7.9989
A 14.0006 2.00075 9.99965
A 13.9988 2.00015 11.9989
B 13.9993 1.99895 13.9998
B 14.0012 2 15.9988
B 14.0006 1.9997 18.0002
A 14.0007 3.99895 19.9993
A 14.0005 3.9996 2
B 13.9996 3.9997 3.99995
B 14.0006 3.9996 6
A 13.9995 3.99915 8.0003
A 13.9999 4.00065 10.001
B 14 4.0003 11.999
B 14.001 3.9989 14.0007
A 14.0006 4.00015 16.001
B 14.0005 3.99915 18.0003
B 14.0002 5.99895 19.9992
A 13.9997 6.00055 2.00025
B 14.0008 6.001 4.00015
B 14.0009 6.00035 5.99895
A 14.0008 5.9993 7.9989
B 13.9998 5.9999 9.9989
A 14.0006 5.9988 12.0004
A 14.0006 5.9996 14.0006
A 14.0008 6.00055 16.0007
A 14 6.0005 17.9987
A 13.9996 8.00055 19.9989
A 13.9992 7.9994 2.0006
A 13.9992 8.0006 4.0012
A 13.9999 7.99915 6
A 14 7.9999 8.00035
B 14.0001 7.9992 10.0005
A 13.9992 8.0001 11.9989
B 14.0004 7.999 13.9998
B 14.0003 8.0002 15.9989
B 13.9993 8.00075 18.0011
B 13.999 9.9988 19.9995
A 13.9996 10 2.00115
A 13.9994 10.001 3.9988
A 14.0006 9.9993 6.0005
A 13.9994 9.99935 7.9993
B 14.0006 9.9988 10.0012
B 13.9993 9.9991 12.0006
A 13.9998 10.001 14.0002
B 14 10.0002 16.0006
A 13.9989 10 17.9993
B 14.0008 12.0013 0.000600803
B 13.9998 12.0003 1.9997
A 13.999 11.9998 4.0004
B 14.0012 12.0004 5.99875
A 13.9995 12.0011 8.0006
B 13.9995 11.9992 9.99915
A 13.9993 12.0002 11.9991
A 14.0011 12.0004 14.0009
B 14.0002 12.001 16.0004
A 13.9989 12.0001 17.9989
B 14.0008 14.0011 19.9998
B 14.0005 14.0003 2.00045
B 13.9997 13.9992 3.9997
B 14 14.0006 5.9992
B 13.9997 14 7.999
A 13.9999 14.0002 9.9996
B 13.9994 13.9997 12.0011
B 14 13.9995 14.0005
B 13.9993 14.001 15.9987
B 13.9999 13.9988 18
A 14.0012 15.9998 0.000497784
B 13.9996 16.0003 1.9992
A 13.9988 16.0005 4.00025
B 14.0003 15.9993 6.00095
B 13.9997 16.0002 8.00045
A 14 16.0011 10.0007
B 13.9991 15.9996 11.9999
B 14.0006 15.9991 14.0009
B 14.0004 15.9993 16.0011
A 13.9992 16.001 18.0004
A 14.0012 17.9996 19.9998
A 14.0003 18.0005 1.9992
A 14.0004 17.9989 3.99995
B 14.0003 17.9995 5.99895
B 13.9997 18.0004 7.9998
B 14 17.999 9.9993
A 14.0001 18.0005 11.9992
B 13.9988 17.9999 14.0001
B 13.9993 18.0009 16.0003
A 13.9998 18.0005 18.0009
A 16.0006 19.9994 19.9998
A 15.9995 0.000602216 1.99955
B 16.0009 19.999 4.00035
A 16.001 0.000897784 6.0012
A 15.9994 19.9999 7.99935
A 15.9989 19.9999 10.0009
A 16.0012 19.9988 11.9995
B 16.0002 19.9996 14.0012
A 16.0007 19.9993 15.999
B 15.9988 19.9993 17.9995
A 16.0011 1.99885 19.999
A 15.9994 1.9998 2.0001
B 16.0007 1.99895 4.00085
B 16.0004 2.0011 6.0012
B 15.9988 2.00035 8.0001
A 15.9991 2.001 9.9996
A 15.9992 2.0002 11.9994
B 16.0009 2.0002 14
B 15.9994 2.0003 15.9995
B 16.0001 2.00025 18.0004