15
Atoms. Timestep: 0
A 9 9 9
A 9 7.2 9
A 9 7.2 7.2
A 7.2 7.2 7.2
A 7.2 7.2 5.4
A 7.2 5.4 5.4
A 5.4 5.4 5.4
B 0 0 0
B 0 1.8 1.8
B 0 1.8 3.6
B 0 0 0.9
B 0 0 1.98
B 1.8 1.8 3.6
B 1.8 3.6 3.6
B 8.1 8.1 8.1
15
Atoms. Timestep: 1
A 9 8.99845 9
A 8.99999 7.20155 8.99999
A 8.99999 7.20001 7.20001
A 7.20001 7.20001 7.2
A 7.2 7.2 5.4
A 7.2 5.4 5.4
A 5.4 5.4 5.4
B 10 10 9.99827
B 0 1.79999 1.8
B 4.61206e-06 1.8 3.6
B 10 1.64724e-06 0.901688
B 0 4.44024e-06 1.98004
B 1.8 1.8 3.6
B 1.8 3.6 3.6
B 8.10001 8.09999 8.1
15
Atoms. Timestep: 2
A 8.99999 8.99383 8.99999
A 9.00265 7.20155 9.00018
A 8.99995 7.20003 7.20005
A 7.20005 7.20003 7.20001
A 7.2 7.19998 5.40002
A 7.19446 5.39656 5.39928
A 5.40721 5.4022 5.39498
B 9.99999 9.99999 9.99316
B 0.00265548 1.79999 1.8002
B 1.84484e-05 1.8 3.59998
B 10 6.60534e-06 0.906653
B 9.17829e-12 1.77612e-05 1.98017
B 1.79446 1.79656 3.59928
B 1.80721 3.60219 3.59498
B 8.10005 8.09995 8.1
15
Atoms. Timestep: 3
A 9.00264 8.99383 9.00018
A 9.0053 7.20308 9.00037
A 8.99442 7.19659 7.19933
A 7.20009 7.20005 7.20002
A 7.20721 7.20218 5.395
A 7.18892 5.39313 5.39856
A 5.41443 5.40439 5.38996
B 9.99997 9.99997 9.98667
B 0.00531094 1.79999 1.8004
B 0.00267393 1.8 3.60018
B 10 1.32688e-05 0.912942
B 6.61524e-09 3.55233e-05 1.98036
B 1.78892 1.79312 3.59856
B 1.81442 3.60438 3.58996
B 8.10011 8.09989 8.1
15
Atoms. Timestep: 4
A 9.0053 8.99383 9.00038
A 9.00793 7.20612 9.00054
A 8.98888 7.19314 7.19861
A 7.2073 7.20225 7.195
A 7.19666 7.19767 5.39904
A 7.18337 5.3897 5.39784
A 5.41507 5.40323 5.39576
B 9.99859 0.00121624 9.98006
B 0.00796642 1.79999 1.80059
B 0.00533426 1.8 3.60037
B 0.00377288 9.99023 0.906819
B 2.64406e-08 5.77277e-05 1.98061
B 1.78338 1.78969 3.59784
B 1.82163 3.60657 3.58494
B 8.10213 8.0996 8.09945
15
Atoms. Timestep: 5
A 9.00795 8.99232 9.00057
A 9.01059 7.20612 9.00073
A 8.98334 7.18971 7.1979
A 7.21452 7.20445 7.18998
A 7.18612 7.19317 5.40309
A 7.17784 5.38625 5.39713
A 5.41573 5.40207 5.40156
B 0.00579912 0.00341158 9.97504
B 0.0106219 1.79998 1.80079
B 0.00798974 1.8 3.60056
B 0.00755416 9.98043 0.901741
B 10 8.48821e-05 1.98091
B 1.77785 1.78625 3.59713
B 1.82884 3.60876 3.57992
B 8.10417 8.09929 8.09891
15
Atoms. Timestep: 6
A 9.01061 8.99232 9.00077
A 9.01323 7.20763 9.00092
A 8.97778 7.18628 7.1972
A 7.22175 7.20666 7.18496
A 7.18058 7.18973 5.40238
A 7.1723 5.38282 5.39641
A 5.42293 5.40427 5.39654
B 0.0130029 0.00563051 9.96892
B 0.0132773 1.79998 1.80099
B 0.0106504 1.8 3.60075
B 0.00820017 9.97927 0.907539
B 9.99446 9.99664 1.98019
B 1.78506 1.78844 3.59211
B 1.81829 3.60426 3.58397
B 8.09362 8.09479 8.10295
15
Atoms. Timestep: 7
A 9.01326 8.99082 9.00096
A 9.01589 7.20763 9.00111
A 8.97221 7.18286 7.19652
A 7.229 7.20887 7.17995
A 7.17504 7.18629 5.40166
A 7.17951 5.38501 5.39139
A 5.43015 5.40646 5.39152
B 0.00746693 0.00218958 9.9682
B 0.0159328 1.79998 1.80119
B 0.0133059 1.8 3.60095
B 0.00884205 9.97809 0.914174
B 9.98392 9.99214 1.98423
B 1.79226 1.79064 3.58709
B 1.80774 3.59975 3.58801
B 8.08309 8.09027 8.107
15
Atoms. Timestep: 8
A 9.01592 8.99082 9.00115
A 9.01035 7.20419 9.00039
A 8.97941 7.18506 7.1915
A 7.21845 7.20437 7.18399
A 7.17569 7.18513 5.40746
A 7.18671 5.38721 5.38637
A 5.43737 5.40866 5.3865
B 0.00192619 9.99877 9.96669
B 0.0185881 1.79996 1.80139
B 0.0159663 1.8 3.60114
B 0.00330612 9.97465 0.913455
B 9.98594 9.99185 1.98369
B 1.79492 1.79064 3.58728
B 1.7972 3.59524 3.59206
B 8.07257 8.08574 8.11104
15
Atoms. Timestep: 9
A 9.01857 8.98931 9.00135
A 9.01301 7.20419 9.00059
A 8.98661 7.18726 7.18649
A 7.20792 7.19988 7.18804
A 7.17634 7.18396 5.41326
A 7.19391 5.38942 5.38135
A 5.43183 5.40522 5.38578
B 0.00913557 0.000960348 9.96167
B 0.0212433 1.79994 1.8016
B 0.0186318 1.8 3.60132
B 9.99777 9.9712 0.912737
B 9.98797 9.99156 1.9832
B 1.79757 1.79064 3.58748
B 1.78665 3.59073 3.5961
B 8.07978 8.08794 8.10602
15
Atoms. Timestep: 10
A 9.02121 8.98631 9.00154
A 9.01566 7.2057 9.00077
A 8.98927 7.18726 7.18669
A 7.19739 7.19539 7.19209
A 7.17698 7.1828 5.41907
A 7.18837 5.38598 5.38063
A 5.4263 5.40178 5.38506
B 0.00359965 9.99752 9.96095
B 0.0238984 1.79992 1.80181
B 0.0213022 1.8 3.6015
B 9.99223 9.96774 0.912676
B 9.97742 9.98705 1.98724
B 1.80023 1.79064 3.58767
B 1.7761 3.58621 3.60015
B 8.08699 8.09013 8.101
